default_name
 30545
  40.9709937  64.3191919  32.1895701  40.0605023  64.1105380  32.5737183
  41.0565006  63.8644666  31.2917874  41.1377951  65.3120120  32.2707183
  41.9979937  63.6751919  33.0565701  42.5879319  62.9678681  32.4736763
  42.9409937  64.7401919  33.6365701  43.7400759  64.2035512  34.1480227
  43.3550321  65.2850653  32.7881685  42.2889937  65.7251919  34.6045701
  42.0048543  65.1771734  35.5029249  43.0274930  66.4846896  34.8612490
  40.8369937  66.5231919  33.9165701  41.5699937  68.0161919  33.2425701
  42.3183424  67.7492704  32.4963622  40.7942942  68.6242546  32.7771127
  42.0431852  68.5831532  34.0442845  41.3359937  62.8811919  34.1825701
  40.4519937  62.0621919  33.9345701  41.7649937  63.1251919  35.4155701
  42.5106811  63.7899120  35.5645562  41.2199937  62.4291919  36.5715701
  41.3394387  61.3501280  36.4743422  41.9189937  62.8881919  37.8705701
  41.7542647  63.9568408  38.0082407  41.3539937  62.1311919  39.0615701
  41.5187710  61.0624302  38.9248298  41.8529011  62.4615742  39.9726351
  40.2845964  62.3259907  39.1424672  43.4189937  62.6641919  37.7585701
  43.8107167  63.2372910  36.9182055  43.9052068  62.9901067  38.6780678
  43.6177065  61.6043969  37.5990436  39.7139937  62.6451919  36.7185701
  38.9459937  61.6841919  36.7935701  39.2949937  63.9051919  36.7595701
  39.9570668  64.6671661  36.7256003  37.8789937  64.2251919  36.9055701
  37.4825952  63.7539040  37.8049338  37.6869937  65.7391919  37.0215701
  36.6215564  65.9522492  37.1084563  38.2014064  66.0907325  37.9159408
  38.2089937  66.4021919  35.8865701  38.0780573  67.3485758  35.9804474
  37.0529937  63.6901919  35.7385701  35.9249937  63.2371919  35.9255701
  37.6209937  63.7391919  34.5375701  38.5417229  64.1385947  34.4242806
  36.9249937  63.2581919  33.3495701  35.9882795  63.8008165  33.2221959
  37.7889937  63.4761919  32.1065701  38.0809341  64.5263464  32.0998198
  38.6764435  62.8536342  32.2203895  37.0939937  63.1341919  30.7945701
  36.7331716  62.1070340  30.8480006  36.2486506  63.8092063  30.6609566
  38.0479937  63.2761919  29.6155701  38.4723368  64.2799993  29.6356338
  38.8461449  62.5425550  29.7288444  37.3379937  63.0521919  28.2875701
  36.5581470  63.8077347  28.1922036  38.0691504  63.1827463  27.4897828
  36.7309937  61.6981919  28.1865701  36.0531450  61.5771726  28.9254714
  36.2741389  61.6000099  27.2911686  37.4535083  60.9979472  28.2744862
  36.5769937  61.7761919  33.4825701  35.4379937  61.3721919  33.2385701
  37.5619937  60.9721919  33.8695701  38.4865337  61.3331064  34.0568289
  37.3329937  59.5491919  34.0335701  36.8427624  59.1627606  33.1400136
  38.2916694  59.0479460  34.1669600  36.4579937  59.2671919  35.2365701
  35.5669937  58.4201919  35.1845701  36.7139937  59.9801919  36.3285701
  37.4710832  60.6487086  36.3290664  35.9379937  59.8131919  37.5525701
  36.0441096  58.7944907  37.9255131  36.4379937  60.7831919  38.6285701
  37.1282523  61.4687156  38.1369405  35.5675415  61.3360659  38.9817604
  37.1349937  60.1231919  39.8125701  37.4951505  60.9106151  40.4746522
  36.3917160  59.5213054  40.3354181  38.2979937  59.2411919  39.3965701
  39.1829937  59.7271919  38.6605701  38.3299937  58.0631919  39.8125701
  34.4599937  60.0731919  37.2785701  33.5869937  59.4051919  37.8325701
  34.1889937  61.0451919  36.4115701  34.9444906  61.5752788  36.0012876
  32.8219937  61.4091919  36.0645701  32.2533629  61.6320846  36.9673863
  32.8239937  62.6521919  35.1675701  33.4662592  63.3896105  35.6490347
  33.2631680  62.3552153  34.2151884  31.4479937  63.2591919  34.9245701
  31.5666356  64.0975230  34.2381112  30.8262809  62.4943562  34.4591684
  30.7839937  63.7421919  36.2035701  31.3909937  64.5731919  36.9145701
  29.6529937  63.2941919  36.4975701  32.0939937  60.2651919  35.3645701
  30.9719937  59.9211919  35.7315701  32.7349937  59.6761919  34.3605701
  33.6409543  60.0142909  34.0689817  32.1359937  58.5731919  33.6165701
  31.1845242  58.8872506  33.1874174  33.0629937  58.1371919  32.4825701
  34.0305699  58.0005468  32.9655026  32.6963229  57.1746481  32.1259723
  33.2149937  59.0961919  31.2975701  33.4698329  60.0897891  31.6662466
  34.3189937  58.5991919  30.3745701  34.0646281  57.6057683  30.0051022
  34.4248136  59.2833170  29.5326225  35.2590918  58.5521479  30.9242090
  31.8949937  59.1991919  30.5505701  31.1244954  59.5754649  31.2235117
  32.0059528  59.8819534  29.7081771  31.6067340  58.2141142  30.1836542
  31.8079937  57.3631919  34.4895701  30.9199937  56.5741919  34.1605701
  32.5139937  57.2171919  35.6045701  33.2602869  57.8574942  35.8351319
  32.2829937  56.0791919  36.4855701  31.5187898  55.4265071  36.0635580
  33.5819937  55.2741919  36.6465701  34.3719650  55.9434416  36.9873772
  33.4586089  54.4633364  37.3644765  34.0719937  54.6451919  35.3645701
  34.7619937  55.3991919  34.4165701  34.9708149  56.4489070  34.6229479
  35.1859937  54.8241919  33.2105701  35.7230976  55.4282099  32.4792820
  34.9209937  53.4791919  32.9455701  35.2472315  53.0251215  32.0098945
  34.2319937  52.7141919  33.8905701  34.0199880  51.6633360  33.6934520
  33.8139937  53.2991919  35.0915701  33.2785529  52.7032737  35.8306807
  31.7349937  56.4561919  37.8615701  31.7849937  55.6491919  38.7895701
  31.1949937  57.6701919  37.9775701  31.2176974  58.2892893  37.1798845
  30.6469937  58.1811919  39.2395701  31.4445706  58.3072322  39.9717478
  29.9319937  59.5461919  39.0445701  29.4378549  59.8220009  39.9761582
  30.9259937  60.6201919  38.6645701  31.4202336  60.3452886  37.7327682
  30.4046233  61.5682903  38.5327315  31.6707560  60.7223821  39.4538653
  28.9329937  59.4311919  38.0225701  28.4948485  60.2774825  37.9067196
  29.6829937  57.2711919  39.9995701  29.7389937  57.1941919  41.2295701
  28.7869937  56.5951919  39.2915701  28.7270668  56.6529365  38.2850048
  27.8479937  55.7321919  39.9895701  28.0452471  55.8089050  41.0588247
  26.8389559  56.0874103  39.7803768  27.9559937  54.2811919  39.5715701
  29.0539937  53.7341919  39.4485701  26.8039937  53.6541919  39.3655701
  25.9328931  54.1463920  39.5034903  26.7509937  52.2681919  38.9345701
  27.6531358  51.7349691  39.2344239  25.5239937  51.5411919  39.5355701
  24.6250873  52.1191339  39.3209785  25.3899937  50.1531919  38.9305701
  26.2883936  49.5744601  39.1451586  24.5235001  49.6509037  39.3606814
  25.2618626  50.2374799  37.8514132  25.6719937  51.4471919  41.0545701
  25.7392053  52.4500324  41.4763467  24.8060035  50.9346876  41.4734971
  26.5764271  50.8897546  41.2982192  26.6439937  52.2861919  37.4175701
  25.8019937  52.9931919  36.8605701  27.5029937  51.5171919  36.7555701
  28.1931802  50.9808385  37.2616008  27.5169937  51.4621919  35.2965701
  26.7687381  52.1299656  34.8696148  28.9079937  51.8601919  34.7445701
  29.6734818  51.2650497  35.2424989  28.9689937  51.6121919  33.2455701
  28.2040458  52.2073892  32.7468760  29.9519330  51.8959580  32.8695280
  28.7947889  50.5552016  33.0442597  29.1909937  53.3311919  35.0535701
  29.1755793  53.4858545  36.1324324  30.1712010  53.6031873  34.6620195
  28.4281632  53.9543278  34.5867810  27.1469937  50.0991919  34.7135701
  27.7209937  49.0711919  35.0875701  26.1769937  50.0791919  33.7825701
  25.3339937  51.2211919  33.3905701  25.7879617  51.7541488  32.5551240
  25.2103333  51.9031952  34.2318064  24.0539937  50.5431919  33.0125701
  23.4414382  51.1794335  32.3737654  23.4817644  50.2565795  33.8949013
  24.5419937  49.3301919  32.2725701  24.9040269  49.6809913  31.3061485
  23.8360112  48.5136793  32.1209271  25.7189937  48.8511919  33.1265701
  25.4403564  48.1126311  33.8782265  26.8529937  48.2981919  32.2665701
  27.6089937  49.0621919  31.6665701  26.9609937  46.9771919  32.1975701
  26.3208521  46.3787679  32.6997721  28.0209937  46.3541919  31.4185701
  28.5139159  47.0955833  30.7897094  29.0579937  45.6921919  32.3375701
  28.5546841  44.9703801  32.9808178  30.1319937  44.9721919  31.5005701
  30.6360881  45.6934895  30.8573600  30.8603379  44.5075996  32.1652275
  29.6606710  44.2052429  30.8859620  29.7039937  46.7421919  33.2365701
  30.3409439  47.3718295  32.6153199  28.9092627  47.3478234  33.6721302
  30.5329937  46.1231919  34.3455701  31.3282689  45.5177427  33.9107500
  30.9707573  46.9125996  34.9565511  29.8965876  45.4937344  34.9675592
  27.5289937  45.2931919  30.4505701  26.6079937  44.5401919  30.7515701
  28.1559937  45.2451919  29.2805701  28.8840285  45.9127229  29.0696979
  27.8259937  44.2481919  28.2795701  27.1147158  43.5364284  28.6985875
  27.2029937  44.8891919  27.0415701  26.2473724  45.2996764  27.3677442
  27.8468325  45.6984279  26.6970287  26.9689937  43.9001919  25.8955701
  27.9294309  43.5432579  25.5237376  26.1469937  42.7171919  26.3975701
  25.1861613  43.0733097  26.7691612  25.9822844  42.0154751  25.5799118
  26.6843682  42.2163164  27.2028358  26.2599937  44.6051919  24.7425701
  26.8766107  45.4304301  24.3863893  26.0955785  43.8979490  23.9296270
  25.3006911  44.9914373  25.0870290  29.1249937  43.5521919  27.8995701
  30.1489937  44.2071919  27.6985701  29.0779937  42.2251919  27.8125701
  28.2098343  41.7435431  27.9980775  30.2489937  41.4301919  27.4695701
  31.0537029  42.0554709  27.0828293  30.7769937  40.6511919  28.7135701
  29.9837506  40.0079031  29.0944168  31.9879937  39.7951919  28.3295701
  32.7818802  40.4378758  27.9490406  32.3461619  39.2570511  29.2071922
  31.6988350  39.0807069  27.5588561  31.1439937  41.6351919  29.8255701
  30.2620192  42.2096601  30.1087825  31.5120327  41.0849193  30.6915072
  31.9198372  42.3132288  29.4699949  29.8899937  40.4361919  26.3715701
  28.8509937  39.7801919  26.4375701  30.7589937  40.3331919  25.3685701
  31.5980364  40.8951309  25.3867703  30.5569937  39.4271919  24.2415701
  29.8159893  38.6722206  24.5043058  30.0589937  40.1951919  23.0155701
  29.9548470  41.2389243  23.3120080  30.8300450  40.1107318  22.2497722
  28.7469937  39.6961919  22.4645701  28.7826724  39.7773621  21.3781819
  28.6418187  38.6486496  22.7468687  27.5659937  40.4801919  22.9895701
  27.4929937  41.6981919  22.6975701  26.7159937  39.8821919  23.6865701
  31.8599937  38.7461919  23.8665701  32.8849937  39.4111919  23.6895701
  31.8259937  37.4271919  23.7275701  30.9890038  36.8973619  23.9246170
  33.0269937  36.7031919  23.3585701  33.7202301  37.3726080  22.8492524
  33.7189937  36.1381919  24.6085701  33.9258459  37.0167555  25.2196654
  32.9954293  35.5030067  25.1195440  35.0219937  35.3521919  24.3835701
  35.5954474  35.8222037  23.5846079  35.8399937  35.3491919  25.6565701
  35.2673376  34.8788864  26.4559302  36.7626427  34.7918092  25.4948784
  36.0800812  36.3747169  25.9372067  34.7259937  33.9251919  23.9425701
  34.1617492  33.9421569  23.0101326  35.6630679  33.3897611  23.7899034
  34.1409667  33.4206685  24.7115295  32.7889937  35.5751919  22.3635701
  31.8039937  34.8421919  22.4495701  33.7129937  35.4551919  21.4185701
  34.4852498  36.1060068  21.4059250  33.6829937  34.4021919  20.4175701
  32.8410137  33.7378734  20.6121203  33.5299937  34.9871919  19.0095701
  34.1939218  35.8470865  18.9208008  33.8370514  34.2171502  18.3018615
  32.1069937  35.4141919  18.7055701  31.9119937  36.1701919  17.7315701
  31.1809937  34.9881919  19.4285701  35.0389937  33.7261919  20.5585701
  36.0749937  34.3881919  20.5115701  35.0389937  32.4151919  20.7465701
  34.1894345  31.8701314  20.7820322  36.3019937  31.7281919  20.9085701
  37.0843394  32.4136759  20.5827695  36.4207167  31.5212779  21.9721446
  36.4299937  30.4341919  20.1385701  35.4539937  29.9001919  19.6105701
  37.6569937  29.9321919  20.0855701  38.4063965  30.4187416  20.5564886
  37.9669937  28.6851919  19.3995701  37.0944747  28.0319366  19.4077697
  38.3599937  28.9581919  17.9455701  37.5484935  29.5241630  17.4881389
  39.2677497  29.5615811  17.9462791  38.5989937  27.6861919  17.1525701
  39.2869937  26.7721919  17.6585701  38.0989937  27.6091919  16.0105701
  39.1479937  28.0721919  20.1305701  40.2579937  28.5981919  20.0735701
  38.9089937  26.9641919  20.8225701  37.9785512  26.5729284  20.8584710
  39.9679937  26.2931919  21.5595701  40.9206183  26.8069653  21.4305641
  39.6419937  26.2281919  23.0705701  38.6813149  25.7315708  23.2068158
  40.7189937  25.4561919  23.8085701  41.6799538  25.9524999  23.6731630
  40.4766043  25.4184397  24.8706071  40.7754990  24.4420563  23.4130479
  39.5189937  27.6311919  23.6285701  38.7196979  28.1603496  23.1097057
  39.2893722  27.5806224  24.6929085  40.4592846  28.1635328  23.4851579
  40.1339937  24.8831919  21.0155701  39.2319937  24.0541919  21.1365701
  41.2919937  24.6251919  20.4115701  41.9800002  25.3585127  20.3167701
  41.5849937  23.3241919  19.8275701  42.5199672  23.3681394  19.2690073
  41.7229937  22.2741919  20.9285701  41.0432985  22.5159551  21.7456773
  41.4549320  21.3048005  20.5084235  43.1319937  22.1901919  21.4795701
  43.7939937  23.2071919  21.6815701  43.5919937  20.9741919  21.7405701
  44.5251045  20.8590059  22.1095365  43.0071291  20.1687942  21.5691971
  40.5119937  22.8931919  18.8285701  40.2989937  21.6991919  18.6135701
  39.8399937  23.8671919  18.2195701  40.0288621  24.8406972  18.4111831
  38.8069937  23.5441919  17.2535701  38.9617766  24.1969712  16.3944888
  38.9656677  22.5079341  16.9550879  37.3759937  23.7041919  17.7455701
  36.4549937  23.8011919  16.9315701  37.1749937  23.7351919  19.0625701
  37.9451255  23.6313542  19.7077167  35.8289937  23.8871919  19.6095701
  35.1178845  23.3424005  18.9885828  35.7549937  23.3371919  21.0345701
  36.3859247  23.9235318  21.7025752  34.7236162  23.3728298  21.3854124
  36.2019937  21.9141919  21.1625701  37.5259937  21.5591919  21.3065701
  37.6209937  20.2431919  21.3865701  38.5922297  19.7627828  21.5049208
  36.4069937  19.7321919  21.2985701  36.1715932  18.7504732  21.3288172
  35.5009937  20.7561919  21.1575701  34.4375350  20.5345088  21.0680531
  35.3979937  25.3481919  19.6185701  35.9339937  26.1551919  20.3775701
  34.4259937  25.6831919  18.7735701  34.0363410  24.9798742  18.1623301
  33.9119937  27.0461919  18.6765701  34.7034983  27.7589421  18.9081018
  33.4059937  27.3211919  17.2615701  32.6571846  26.5620208  17.0356423
  32.9340170  28.3036146  17.2751196  34.4899937  27.2951919  16.1975701
  35.2496461  28.0323487  16.4576259  34.9384138  26.3018117  16.1828301
  33.9249937  27.6141919  14.8285701  33.2390082  26.8176320  14.5404466
  33.3817648  28.5573765  14.8869188  35.0329937  27.7301919  13.7895701
  35.5941219  26.7957648  13.7805285  34.5733077  27.8868107  12.8137328
  35.9589937  28.8641919  14.0915701  36.3853814  28.7190420  14.9955750
  36.6778972  28.9094720  13.3835959  35.4393135  29.7301985  14.0995732
  32.7779937  27.2701919  19.6685701  31.9369937  26.3921919  19.8785701
  32.7489937  28.4531919  20.2725701  33.4499167  29.1522981  20.0724282
  31.7209937  28.7681919  21.2515701  30.7581610  28.3694487  20.9321077
  32.0909937  28.1351919  22.5995701  31.2707198  28.2934211  23.2997225
  32.2816994  27.0666669  22.4996420  33.3159937  28.7331919  23.2305701
  33.2139937  29.8381919  24.0715701  32.2287375  30.2500483  24.2900750
  34.3509937  30.4171919  24.6315701  34.2537563  31.2815534  25.2884755
  35.6069937  29.8941919  24.3535701  36.4984664  30.3452919  24.7893283
  35.7249937  28.7891919  23.5145701  36.7071108  28.3725885  23.2909906
  34.5789937  28.2141919  22.9585701  34.6671595  27.3481232  22.3026343
  31.5909937  30.2751919  21.4045701  32.4489937  31.0341919  20.9515701
  30.5169937  30.7071919  22.0505701  29.8270966  30.0559752  22.3970642
  30.2919937  32.1261919  22.2625701  31.2356952  32.6652212  22.1790592
  29.3169937  32.6801919  21.2165701  28.3641563  32.1608514  21.3189689
  29.1723109  33.7441239  21.4042285  29.8159937  32.4961919  19.9035701
  29.1880093  32.8508572  19.2699709  29.7249937  32.3511919  23.6515701
  28.9669937  31.5251919  24.1635701  30.1069937  33.4721919  24.2565701
  30.7477979  34.0983979  23.7903777  29.6309937  33.8341919  25.5825701
  28.8271122  33.1673129  25.8942529  30.7629937  33.7731919  26.6395701
  31.5893719  34.4073056  26.3184810  30.2399937  34.2631919  27.9945701
  29.4138406  33.6292384  28.3165559  31.0413100  34.2173232  28.7320583
  29.8923989  35.2919459  27.8999942  31.2899937  32.3551919  26.7615701
  31.6832688  32.0290848  25.7987145  32.0846657  32.3252412  27.5070223
  30.4810765  31.6913851  27.0667165  29.0789937  35.2541919  25.5555701
  29.6639937  36.1431919  24.9455701  27.9489937  35.4561919  26.2185701
  27.4874526  34.6862096  26.6813945  27.3319937  36.7711919  26.2865701
  28.0364210  37.5284949  25.9425156  26.0849937  36.8231919  25.3985701
  26.3886052  36.7436078  24.3547379  25.4334704  35.9868040  25.6516959
  25.3889937  38.0391919  25.5955701  24.6110996  38.0573561  25.0332974
  26.9559937  37.0581919  27.7365701  26.4199937  36.1961919  28.4305701
  27.2429937  38.2691919  28.1965701  27.6786692  38.9754483  27.6208201
  26.9259937  38.6021919  29.5685701  26.0855112  37.9711168  29.8574168
  27.7996494  38.3380134  30.1644182  26.5689937  40.0491919  29.8325701
  26.9339937  40.9541919  29.0845701  25.8539937  40.2531919  30.9295701
  25.5941341  39.4617366  31.5006838  25.4159937  41.5741919  31.3435701
  25.9718875  42.3386495  30.8007203  23.9249937  41.7501919  31.0465701
  23.4826754  42.2399990  31.9140623  23.8477726  42.4072680  30.1803208
  23.1769937  40.4391919  30.7625701  22.1196591  40.6778189  30.6476722
  23.5636606  40.0430972  29.8235830  23.3459937  39.3941919  31.8635701
  23.0099937  39.6991919  33.0295701  23.8099937  38.2651919  31.5585701
  25.6619937  41.7441919  32.8315701  25.8219937  40.7621919  33.5645701
  25.6869937  42.9941919  33.2765701  25.5540516  43.7782601  32.6539444
  25.9079937  43.2631919  34.6805701  25.0349093  42.9322146  35.2429551
  26.7848130  42.7062094  35.0108093  26.1329937  44.7361919  34.9425701
  25.6199937  45.5941919  34.2255701  26.9059937  45.0341919  35.9765701
  27.2907975  44.3080275  36.5636909  27.1809937  46.4141919  36.3215701
  27.3788329  46.9945539  35.4203827  25.9759937  47.0171919  37.0345701
  26.2741357  47.9924100  37.4194859  25.1851039  47.1451704  36.2955067
  25.4699937  46.1631919  38.1685701  25.3417832  45.1440091  37.8039754
  26.2224094  46.1744671  38.9571402  24.1589937  46.6691919  38.7175701
  23.2399937  46.9301919  37.9105701  24.0449937  46.7981919  39.9535701
  28.4139937  46.5391919  37.1955701  28.8389937  45.5791919  37.8435701
  28.9819937  47.7371919  37.2065701  28.6000230  48.5004607  36.6665531
  30.1679937  47.9821919  37.9955701  30.2840271  47.1785268  38.7227275
  31.0358891  48.0032225  37.3364687  30.0759937  49.2981919  38.7285701
  29.4109937  50.2371919  38.2835701  30.7609937  49.3621919  39.8605701
  31.2937138  48.5587912  40.1619934  30.7759937  50.5501919  40.6945701
  30.3839363  51.4072245  40.1469522  29.8899937  50.3071919  41.9255701
  28.8730584  50.1196874  41.5809198  30.2724095  49.4187094  42.4280212
  29.8879937  51.4741919  42.8945701  28.9629937  51.5401919  43.7325701
  30.8089937  52.3161919  42.8305701  32.2299937  50.7751919  41.0935701
  32.7059937  50.2021919  42.0665701  32.9299937  51.6011919  40.3225701
  32.4993544  52.0109763  39.5060373  34.3369937  51.8801919  40.5745701
  34.8653228  50.9268146  40.5808422  34.9129937  52.7521919  39.4525701
  34.4001294  53.7139085  39.4394778  35.9774557  52.9109863  39.6252120
  34.7714446  52.2524507  38.4942790  34.5679937  52.5391919  41.9255701
  35.6739937  52.4841919  42.4615701  33.5269937  53.1611919  42.4725701
  32.6391095  53.1850371  41.9917455  33.6269937  53.8141919  43.7715701
  34.4020209  54.5800608  43.7419587  32.2899937  54.4791919  44.1765701
  31.4925520  53.7388713  44.1124423  32.3699937  55.0181919  45.6025701
  33.1669653  55.7589595  45.6673727  31.4206622  55.4822992  45.8699150
  32.5795590  54.1987216  46.2900666  31.9959937  55.5541919  43.2775701
  31.1661940  55.9651989  43.5307615  33.9839937  52.7701919  44.8245701
  34.7009937  53.0601919  45.7845701  33.4689937  51.5581919  44.6415701
  32.8606637  51.3775040  43.8558311  33.7419937  50.4681919  45.5685701
  34.2676582  50.8546038  46.4417607  32.4389937  49.8041919  46.0345701
  31.8942488  49.5115552  45.1369533  32.7250012  48.9124316  46.5923007
  31.5549937  50.6771919  46.8985701  30.8229937  51.7281919  46.3465701
  30.9004073  51.9139312  45.2753057  30.0049937  52.5331919  47.1355701
  29.4337375  53.3460344  46.6871783  29.9129937  52.2901919  48.4975701
  29.1099937  53.0931919  49.2785701  28.6669751  53.7816340  48.7771903
  30.6309937  51.2501919  49.0765701  30.5615049  51.0563890  50.1469496
  31.4479937  50.4491919  48.2725701  32.0148544  49.6306573  48.7161581
  34.6279937  49.4131919  44.9125701  34.7929937  48.3201919  45.4515701
  35.1979937  49.7461919  43.7565701  35.0542811  50.6588043  43.3484223
  36.0449937  48.8011919  43.0495701  36.2637437  49.1814069  42.0517304
  36.9769761  48.6639121  43.5978970  35.3429937  47.4601919  42.9245701
  35.9509937  46.4051919  43.1175701  34.0569937  47.5011919  42.5925701
  33.5966403  48.3907525  42.4627394  33.2589937  46.2881919  42.4815701
  33.8832748  45.4053310  42.6191530  32.1799937  46.3001919  43.5715701
  32.7012977  46.4136564  44.5220790  31.5642769  47.1807187  43.3880888
  31.2969937  45.0681919  43.6235701  30.7909816  44.9538116  42.6649410
  31.9194331  44.1934377  43.8119220  30.2549937  45.2021919  44.7375701
  30.7807709  45.2898918  45.6883414  29.6771498  46.1087185  44.5575555
  29.3139937  44.0001919  44.7855701  28.7924059  43.9395453  43.8303902
  29.9167406  43.1031545  44.9274128  28.3139937  44.1091919  45.8935701
  27.7550852  44.9401151  45.7620879  27.7149379  43.2960521  45.8875890
  28.7970930  44.1649696  46.7787836  32.6209937  46.0971919  41.1015701
  32.3089937  47.0611919  40.3945701  32.4129937  44.8371919  40.7465701
  32.6837780  44.1015595  41.3834533  31.8379937  44.4631919  39.4685701
  31.1120893  45.2054760  39.1366420  32.9709937  44.3881919  38.4345701
  33.1144875  45.4444661  38.2069883  33.8020872  44.0320434  39.0432916
  32.9149937  43.5911919  37.1345701  32.0182966  43.8466269  36.5699569
  34.1489937  43.9541919  36.3185701  35.0461512  43.6986031  36.8823801
  34.1403281  43.4002907  35.3798374  34.1447611  45.0238013  36.1087648
  32.8929937  42.0871919  37.4045701  32.0158853  41.8374943  38.0015888
  32.8530521  41.5481472  36.4580307  33.7943296  41.8016703  37.9469447
  31.1239937  43.1181919  39.6015701  31.6109937  42.2111919  40.2775701
  29.9659937  42.9971919  38.9645701  29.5870631  43.7785853  38.4488810
  29.1989937  41.7571919  39.0035701  29.8556928  40.9423048  39.3082086
  28.0229937  41.8481919  40.0095701  27.3457250  42.6410715  39.6921599
  27.2649937  40.5251919  40.0675701  27.9415456  39.7318598  40.3853773
  26.4430717  40.6076394  40.7787281  26.8681178  40.2896460  39.0800945
  28.5339937  42.1421919  41.3155701  27.8059769  42.1986119  41.9387945
  28.6519937  41.4611919  37.6105701  28.1099937  42.3481919  36.9445701
  28.7949937  40.2141919  37.1765701  29.2217097  39.5196155  37.7728724
  28.3389937  39.8041919  35.8565701  27.5963174  40.5099461  35.4844920
  29.5159937  39.7691919  34.8755701  30.1558410  39.0152007  35.3340371
  29.0833333  39.3689920  33.9586486  30.3459937  41.0101919  34.5475701
  30.6429710  41.5109211  35.4690773  31.5879937  40.5801919  33.7815701
  31.2918031  40.0797622  32.8596482  32.1891335  41.4571423  33.5413832
  32.1742199  39.8951310  34.3940493  29.5149937  41.9951919  33.7335701
  28.6379247  42.2930991  34.3081140  30.1152957  42.8758199  33.5050245
  29.1966676  41.5220309  32.8046534  27.7189937  38.4161919  35.8455701
  28.0479937  37.5781919  36.6775701  26.8109937  38.1881919  34.9025701
  26.5430428  38.9316246  34.2735952  26.2179937  36.8701919  34.7075701
  26.6390413  36.1882502  35.4463351  24.6899937  36.8711919  34.8555701
  24.4437488  37.1827251  35.8706611  24.2769469  37.5879441  34.1458106
  24.0899937  35.4791919  34.5865701  24.4025017  35.1792876  33.5863216
  24.5164010  34.7951121  35.3202688  22.5629937  35.4371919  34.6775701
  22.2663994  35.6281579  35.7089104  22.1503901  36.2124280  34.0319179
  22.0279937  34.0651919  34.2365701  22.2556949  33.9463398  33.1772652
  22.5578410  33.3039706  34.8091985  20.5489937  33.9131919  34.4505701
  20.0578185  34.6181943  33.9197045  20.2569191  32.9963218  34.1437451
  20.3378401  34.0228635  35.4321430  26.5989937  36.5821919  33.2615701
  26.1129937  37.2361919  32.3415701  27.4899937  35.6211919  33.0655701
  27.8858605  35.1292407  33.8538422  27.9689937  35.2871919  31.7325701
  27.6441759  36.0342469  31.0083455  29.5009937  35.2591919  31.7535701
  29.7796916  34.4572155  32.4371348  29.9103737  35.0518579  30.7648737
  30.0639937  36.5921919  32.2715701  29.3237424  37.0572891  32.9225797
  31.3489937  36.3701919  33.0455701  32.0899314  35.9055149  32.3950431
  31.7288781  37.3275358  33.4023352  31.1531302  35.7177254  33.8964669
  30.2779937  37.5471919  31.1045701  29.3272576  37.7274273  30.6028577
  30.6772054  38.4912171  31.4754442  30.9828878  37.1073629  30.3990393
  27.3879937  33.9561919  31.2815701  27.4069937  32.9711919  32.0265701
  26.8819937  33.9331919  30.0525701  26.9202095  34.7650018  29.4809660
  26.2389937  32.7451919  29.5025701  26.3248219  31.9011175  30.1868735
  24.7479937  33.0401919  29.2345701  24.6692758  33.7758707  28.4341449
  24.0249937  31.7741919  28.8285701  24.1028833  31.0381500  29.6287428
  22.9746095  31.9986127  28.6430196  24.4760128  31.3726877  27.9211147
  24.1059937  33.6451919  30.4855701  24.0852769  32.8632341  31.2446574
  24.7542563  34.4561100  30.8176349  22.6959937  34.1791919  30.2685701
  22.0470001  33.3686902  29.9369165  22.3146173  34.5899766  31.2034001
  22.7159794  34.9615650  29.5098918  26.8529937  32.2281919  28.2005701
  27.2479937  33.0051919  27.3355701  26.9429937  30.9091919  28.0705701
  26.6373667  30.2933878  28.8104868  27.4499937  30.3131919  26.8405701
  28.2136199  30.9626728  26.4126113  28.0689937  28.9341919  27.1005701
  28.9153438  29.0182167  27.7822816  27.3275720  28.2568862  27.5244226
  28.7089937  28.1091919  25.5955701  29.1361685  27.0100086  26.2105629
  26.1999937  30.1751919  25.9765701  25.2689937  29.4541919  26.3295701
  26.1679937  30.8841919  24.8595701  26.9366468  31.4937856  24.6194301
  25.0069937  30.8551919  23.9775701  24.1039959  30.6636857  24.5572420
  24.8509937  32.2031919  23.2565701  24.0427935  32.1264047  22.5292349
  24.5289937  33.3071919  24.2595701  25.3370171  33.3848930  24.9870042
  24.4213623  34.2560936  23.7341177  23.5982663  33.0703091  24.7750637
  26.0759937  32.5191919  22.5815701  25.9841255  33.3609007  22.1291467
  25.0389937  29.7471919  22.9335701  24.0959937  29.5961919  22.1565701
  26.1169937  28.9691919  22.9195701  26.8731534  29.1377340  23.5675789
  26.2589937  27.8811919  21.9595701  25.4844506  27.9477357  21.1955322
  27.6429937  27.9281919  21.2665701  27.7577822  27.0395637  20.6458739
  27.7659937  29.1721919  20.3985701  27.6517679  30.0612955  21.0186886
  28.7453621  29.1867813  19.9203192  26.9890699  29.1607498  19.6341363
  28.6769937  27.9301919  22.2615701  29.5348043  27.9593338  21.8315561
  26.0919937  26.5121919  22.6135701  26.3579937  25.4821919  21.9895701
  25.6509937  26.5001919  23.8675701  25.4384716  27.3576087  24.3572333
  25.4629937  25.2421919  24.5685701  24.4407496  25.1997365  24.9444873
  25.6264117  24.4229287  23.8684260  26.4239937  25.0951919  25.7335701
  26.5629937  26.0071919  26.5525701  27.0919937  23.9481919  25.8065701
  26.9290194  23.2220341  25.1237571  28.0479937  23.6901919  26.8735701
  27.6913328  24.1288764  27.8054757  28.2219937  22.1821919  27.0775701
  28.5312866  21.7641171  26.1196293  29.0212308  22.0488651  27.8066408
  26.9629937  21.4631919  27.5645701  26.6658183  21.8907267  28.5221721
  26.1682015  21.6194303  26.8351889  27.2129937  19.9661919  27.7315701
  27.4027974  19.5398681  26.7465211  28.0942766  19.8352841  28.3595057
  26.0229937  19.2571919  28.3715701  26.2916122  18.2085945  28.4995862
  25.8534818  19.7101623  29.3483929  24.7779937  19.3551919  27.5555701
  24.9347229  18.9351309  26.6505373  24.0277271  18.8700400  28.0265560
  24.5286748  20.3267500  27.4371898  29.3959937  24.3181919  26.5465701
  29.8709937  24.2361919  25.4135701  30.0069937  24.9531919  27.5415701
  29.5725318  25.0082705  28.4516847  31.3079937  25.5841919  27.3575701
  31.3114959  26.1743081  26.4411369  31.6099937  26.5121919  28.5385701
  30.6705921  27.0314243  28.7283635  31.8491793  25.8727101  29.3882485
  32.7289937  27.5381919  28.3415701  33.6310054  27.0303127  28.0001987
  32.2999937  28.5701919  27.2985701  31.3982416  29.0788428  27.6394750
  33.0975635  29.2999826  27.1593266  32.0978519  28.0686389  26.3521644
  33.0399937  28.2171919  29.6595701  33.3594991  27.4708447  30.3868813
  33.8369552  28.9464206  29.5140396  32.1476173  28.7235623  30.0274727
  32.3489937  24.4641919  27.2805701  32.4059937  23.6011919  28.1565701
  33.1769937  24.4541919  26.2215701  33.1259937  25.3521919  25.0545701
  33.0185773  26.3857511  25.3836860  32.2842699  25.0856167  24.4154006
  34.4609937  25.0891919  24.3905701  35.2597640  25.6521666  24.8733999
  34.4300847  25.3399504  23.3302559  34.6349937  23.6201919  24.5855701
  35.6535311  23.2583613  24.4450029  33.9615762  23.0741839  23.9249010
  34.2099937  23.4241919  26.0415701  33.6987571  22.4669074  26.1432647
  35.3999937  23.4731919  27.0095701  36.1659937  22.5121919  27.1115701
  35.5539937  24.5901919  27.7145701  34.9078880  25.3574220  27.5962289
  36.6479937  24.7471919  28.6695701  37.1690675  23.8034654  28.8306960
  37.6629937  25.7911919  28.1835701  38.4483550  25.9029649  28.9311085
  38.2809937  25.3441919  26.8585701  37.4962433  25.2326433  26.1103558
  38.9997174  26.0913204  26.5219163  38.7882555  24.3894633  26.9974240
  36.9749937  27.1471919  28.0315701  36.5690724  27.4591441  28.9938672
  37.6986052  27.8856852  27.6864415  36.1658582  27.0653430  27.3058283
  36.1089937  25.2001919  30.0275701  35.0049937  25.7331919  30.1215701
  36.8899937  25.0051919  31.0985701  38.1679937  24.2791919  31.2185701
  39.0026903  24.9567111  31.0387103  38.2034885  23.4608549  30.4994292
  38.1159937  23.7901919  32.6435701  39.1085015  23.5512735  33.0255981
  37.4677700  22.9201774  32.7483657  37.5209937  25.0021919  33.3565701
  38.2607153  25.7987236  33.4368705  37.1131443  24.7849407  34.3437684
  36.3979937  25.4291919  32.4105701  35.4764299  24.8858400  32.6193453
  36.1269937  26.9281919  32.4665701  36.9129937  27.7341919  31.9645701
  34.9959937  27.2861919  33.0695701  34.3671506  26.5717323  33.4075096
  34.6039937  28.6781919  33.2225701  34.4129783  29.1228536  32.2458981
  33.3249937  28.7711919  34.0615701  33.3216665  28.0058114  34.8376377
  33.2510261  29.7559783  34.5228991  32.0739937  28.5771919  33.2635701
  31.2559937  27.4791919  33.2575701  31.5417927  26.6447804  33.8980201
  30.1979937  27.6851919  32.3975701  29.4534898  27.0276822  32.2145552
  30.3209937  28.9271919  31.8295701  29.5019937  29.5811919  30.8995701
  28.6134615  29.0627609  30.5392391  29.8719937  30.8421919  30.4975701
  29.2579432  31.3807906  29.7757992  31.0329937  31.4581919  30.9995701
  31.3218370  32.4586456  30.6774499  31.8499937  30.8061919  31.9255701
  32.7389879  31.3249716  32.2842589  31.4929937  29.5191919  32.3515701
  35.7039937  29.5231919  33.8725701  35.9299937  30.6701919  33.4815701
  36.3959937  28.9711919  34.8825701  36.1379937  27.7041919  35.5945701
  36.6043803  26.8756052  35.0616273  35.0645130  27.5299985  35.6680198
  36.7789937  27.9611919  36.9525701  37.0408815  27.0285900  37.4523376
  36.1235626  28.5466967  37.5973147  37.9949937  28.7401919  36.5815701
  38.7540868  28.1015548  36.1298850  38.4294073  29.2812372  37.4221975
  37.4639937  29.7271919  35.5455701  37.0054526  30.5916846  36.0256646
  38.5599937  30.1991919  34.5845701  39.1879937  31.2341919  34.8115701
  38.7899937  29.4471919  33.5135701  38.2813472  28.5892957  33.3542206
  39.8299937  29.8241919  32.5575701  40.7431751  30.0915123  33.0893019
  40.1479937  28.6761919  31.5785701  40.9555804  28.9864215  30.9155003
  40.5709937  27.4321919  32.3445701  39.7636823  27.1210714  33.0075572
  40.7925199  26.6295437  31.6411633  41.4603605  27.6531586  32.9347405
  38.9899937  28.3831919  30.7845701  39.1915410  27.6682552  30.1764217
  39.4679937  31.0601919  31.7385701  40.3239937  31.6271919  31.0565701
  38.2079937  31.4841919  31.8115701  37.5297568  30.9859436  32.3699988
  37.7599937  32.6541919  31.0575701  38.5203625  32.9356674  30.3290716
  36.4539937  32.3491919  30.3105701  35.7490032  32.0882868  31.0998838
  36.1524946  33.2906897  29.8514622  36.4639937  31.2431919  29.2485701
  36.6715078  30.2839457  29.7227909  35.0979937  31.1871919  28.5615701
  34.8899685  32.1460021  28.0866941  35.1026332  30.4015409  27.8060360
  34.3268644  30.9740825  29.3018703  37.5609937  31.5251919  28.2185701
  38.5296353  31.5548415  28.7175228  37.5646130  30.7368996  27.4657863
  37.3708779  32.4848967  27.7380270  37.5369937  33.8781919  31.9245701
  37.1989937  34.9441919  31.4145701  37.7169937  33.7271919  33.2325701
  37.9379115  32.8193908  33.6162260  37.5019937  34.8331919  34.1555701
  36.4673966  35.1726891  34.1060764  37.8129937  34.4021919  35.6125701
  38.7524653  33.8496566  35.6266116  37.9299937  35.6321919  36.5215701
  36.9906812  36.1850206  36.5084055  38.1484217  35.3122265  37.5403988
  38.7341380  36.2746177  36.1627628  36.6929937  33.4851919  36.1245701
  36.6280174  32.6011614  35.4902436  36.9107498  33.1817635  37.1485883
  35.7439743  34.0207313  36.0988696  38.2879937  36.0991919  33.8075701
  37.7159937  37.1801919  33.7285701  39.5919937  35.9711919  33.5885701
  40.0545977  35.0783633  33.6831958  40.4049937  37.1421919  33.2595701
  40.2229244  37.9354016  33.9846689  41.9129937  36.8011919  33.2685701
  42.4724398  37.6741003  32.9321903  42.3749937  36.4101919  34.6735701
  41.8162811  35.5370127  35.0104648  43.4390987  36.1747992  34.6543323
  42.1992434  37.2397795  35.3584036  42.1559937  35.7171919  32.3705701
  43.0917285  35.5027361  32.3736549  40.0689937  37.7741919  31.9065701
  40.2959937  38.9651919  31.7055701  39.5309937  36.9891919  30.9765701
  39.3713231  36.0062931  31.1454328  39.1979937  37.5281919  29.6625701
  39.9606348  38.2474948  29.3641056  39.1269937  36.4111919  28.5945701
  38.3685921  35.6855772  28.8885268  38.7659937  37.0011919  27.2305701
  39.5242366  37.7266066  26.9357128  38.7198352  36.2031003  26.4896124
  37.7962512  37.4949741  27.2928526  40.3969937  35.7581919  28.4965701
  40.3503848  35.0656585  27.8333767  37.8689937  38.2801919  29.6765701
  37.7499937  39.3521919  29.0775701  36.8829937  37.7221919  30.3745701
  37.0398302  36.8332085  30.8275714  35.5529937  38.3231919  30.4685701
  35.2712688  38.7703153  29.5152543  34.5279937  37.2401919  30.8235701
  34.8395867  36.8859165  31.8061677  33.5488420  37.7126528  30.9019444
  34.4469937  36.0571919  29.8575701  35.4558817  35.7440160  29.5889313
  33.7129937  34.8951919  30.5145701  32.7038025  35.2074877  30.7830905
  33.6605961  34.0578480  29.8187178  34.2486438  34.5876233  31.4126686
  33.7489937  36.4921919  28.5735701  34.3129799  37.3009455  28.1088802
  33.6921446  35.6480085  27.8863847  32.7421909  36.8390188  28.8062891
  35.4659937  39.4581919  31.4895701  34.5899937  40.3231919  31.4015701
  36.4469937  39.5331919  32.3775701  36.4739937  40.5441919  33.4505701
  37.9419937  40.7291919  33.6825701  38.7059937  40.2011919  34.7455701
  40.0449937  40.6471919  34.5065701  40.0589937  41.4731919  33.2675701
  41.0209937  41.9921919  32.7765701  38.7549937  41.4421919  32.8655701
  38.3069937  42.1021919  31.6245701  37.8799937  43.5231919  31.6635701
  37.9369937  44.1781919  30.6375701  39.1466569  42.0391262  30.9259755
  37.4811550  41.5291553  31.1976867  41.1629937  40.3891919  35.2195701
  41.3859937  39.5681919  36.4485701  40.3509937  38.8551919  37.1475701
  40.7039937  38.0801919  38.3315701  42.0939937  38.0401919  38.7805701
  43.1049937  38.7431919  38.0895701  42.7789937  39.5081919  36.9305701
  43.5630000  40.0511304  36.4048011  44.1296028  38.6915041  38.4518001
  42.4609937  37.2561919  39.9815701  39.9779725  37.5139604  38.9109336
  39.3229350  38.8826148  36.8057702  42.0579890  40.8618341  34.8141829
  36.0381213  40.1737288  34.3812346  35.9878691  41.4866587  33.1941327
  37.2206572  38.8805650  32.3381624  37.4659937  44.0041919  32.8345701
  37.4675079  43.3964136  33.6412315  36.9799937  45.3701919  32.9985701
  37.0840606  45.9298386  32.0690192  35.4929937  45.3221919  33.3785701
  35.4658557  44.8620844  34.3663271  35.0957988  46.3354304  33.4392651
  34.6359937  44.4921919  32.4015701  35.1935261  43.5987097  32.1205932
  33.3229937  44.0881919  33.0365701  32.7646557  44.9812117  33.3174137
  32.7392389  43.5041154  32.3251029  33.5180825  43.4878629  33.9251903
  34.4009937  45.2871919  31.1295701  35.3585844  45.5197213  30.6636843
  33.7951708  44.6994844  30.4398747  33.8802781  46.2139192  31.3706731
  37.7829937  46.0931919  34.0735701  37.2419937  46.5171919  35.0895701
  39.0769937  46.2481919  33.8285701  39.4810566  45.8467301  32.9945072
  39.9679937  46.8821919  34.7915701  39.8315039  46.4496483  35.7827188
  41.4169937  46.6521919  34.3525701  41.6609421  47.3756228  33.5746009
  42.0675757  46.8110013  35.2125833  41.6229937  45.2281919  33.8105701
  41.0688205  44.5528324  34.4624001  41.2132002  45.1764513  32.8018609
  43.0749937  44.7801919  33.7685701  43.9699937  45.5401919  33.3985701
  43.3099937  43.5211919  34.1345701  44.2548931  43.1645133  34.1277068
  42.5422060  42.9290088  34.4172760  39.6849937  48.3621919  35.0355701
  40.2799937  48.9741919  35.9245701  38.7629937  48.9291919  34.2595701
  38.3267318  48.3986516  33.5190960  38.3899937  50.3311919  34.4185701
  39.2833739  50.9384378  34.5642526  37.6549937  50.8321919  33.1675701
  37.1535778  51.7747426  33.3872962  38.3674582  50.9807938  32.3561443
  36.3789937  49.7241919  32.5185701  36.0234718  50.5027658  31.5005696
  37.5089937  50.5271919  35.6575701  37.2549937  51.6611919  36.0805701
  37.0549937  49.4251919  36.2485701  37.2256293  48.5130385  35.8498734
  36.2129937  49.5141919  37.4395701  35.7343750  50.4923556  37.4866775
  35.1269937  48.4411919  37.3925701  35.5306222  47.4669284  37.1169000
  34.6563323  48.3745714  38.3734572  34.0289937  48.7471919  36.4075701
  33.1379937  49.7871919  36.6475701  33.2245770  50.3575939  37.5723645
  32.1399937  50.1051919  35.7205701  31.4480321  50.9227802  35.9226571
  32.0309937  49.3781919  34.5415701  31.2568603  49.6196905  33.8132187
  32.9189937  48.3351919  34.2935701  32.8404031  47.7605460  33.3706910
  33.9099937  48.0251919  35.2265701  34.6037400  47.2069928  35.0332665
  37.0089937  49.4241919  38.7395701  36.4369937  49.3721919  39.8305701
  38.3319937  49.4181919  38.6095701  38.7441293  49.4447473  37.6878660
  39.2219937  49.3631919  39.7635701  39.0181581  48.4767574  40.3642232
  40.6789937  49.3181919  39.3055701  40.9008426  50.2040187  38.7104281
  41.3336310  49.2930898  40.1767304  40.8433707  48.4253207  38.7023616
  39.0129937  50.5851919  40.6435701  38.6779937  51.6631919  40.1585701
  39.2189937  50.4141919  41.9405701  39.4624869  49.5068140  42.3113474
  39.0739937  51.5201919  42.8685701  38.4422359  52.2952615  42.4346942
  38.4219937  51.0251919  44.1635701  37.5646195  50.4209254  43.8671402
  39.1583679  50.3920349  44.6585100  37.9679937  52.1121919  45.1175701
  37.5355936  52.9222205  44.5302161  37.2054481  51.6928259  45.7738919
  39.1099937  52.6481919  45.9505701  39.5298437  51.8377315  46.5463713
  39.8786365  53.0482100  45.2893037  38.6679937  53.7101919  46.8505701
  37.6966078  53.9824886  46.8019561  39.4569937  54.3271919  47.7255701
  38.9669937  55.2871919  48.5015701  37.9939516  55.5468532  48.4249863
  39.5696559  55.7531741  49.1647131  40.7319937  53.9801919  47.8315701
  41.1026641  53.2456692  47.2457545  41.3268768  54.4519306  48.4976598
  40.4649937  52.0981919  43.1385701  41.2709937  51.4961919  43.8515701
  40.7529937  53.2531919  42.5425701  40.0801747  53.6958913  41.9331187
  42.0439937  53.9101919  42.7435701  42.7990070  53.1611748  42.9823746
  42.4829937  54.6631919  41.4875701  41.5841984  55.0780308  41.0313082
  43.1260625  55.4755522  41.8261456  43.2209937  53.8281919  40.4735701
  42.5349937  52.9521919  39.6305701  41.4517242  52.8721933  39.7212723
  43.2129937  52.1871919  38.6845701  42.6677688  51.5031968  38.0341992
  44.5949937  52.2961919  38.5765701  45.2589937  51.5451919  37.6395701
  44.6733368  50.9877248  37.1220413  45.3029937  53.1611919  39.4045701
  46.3863398  53.2485795  39.3219554  44.6129937  53.9201919  40.3465701
  45.1563740  54.6011196  41.0016850  41.9799937  54.9111919  43.8925701
  41.1509937  55.8181919  43.8845701  42.8589937  54.7661919  44.8935701
  43.8179937  53.6821919  45.1685701  44.7786260  53.9009683  44.7022839
  43.4366022  52.7352114  44.7866442  43.8859937  53.7091919  46.6775701
  44.8000577  53.2413966  47.0432938  43.0223958  53.2155461  47.1232311
  43.8699937  55.1871919  46.9685701  44.8501901  55.5830488  46.7028421
  43.6242397  55.4815957  47.9888794  42.8139937  55.7231919  46.0025701
  41.8148849  55.7292446  46.4382801  43.1509937  57.1211919  45.4825701
  43.7969937  57.2711919  44.4395701  42.7159937  58.1391919  46.2145701
  42.1671967  57.9567937  47.0426112  42.9429937  59.5261919  45.8275701
  42.3345723  59.7749908  44.9580750  42.5599937  60.4621919  46.9765701
  43.1739242  60.1975454  47.8374713  42.7839979  61.4844346  46.6717061
  41.0949937  60.3561919  47.3495701  40.2359937  60.4851919  46.4505701
  40.8049937  60.1491919  48.5485701  44.3699937  59.8341919  45.3895701
  44.5809937  60.4671919  44.3555701  45.3499937  59.3921919  46.1715701
  45.1565120  58.9166767  47.0413686  46.7369937  59.6651919  45.8285701
  46.8487908  60.7136570  45.5523065  47.6549937  59.3721919  47.0215701
  48.6721944  59.7110656  46.8251859  47.2634935  59.8883553  47.8981561
  47.7489937  57.9221919  47.3845701  46.6899937  57.2131919  47.9115701
  47.0719937  55.9731919  48.1585701  46.3735680  55.2513479  48.5819396
  48.3399937  55.8501919  47.8095701  48.8994592  55.0127406  47.8855546
  48.7859937  57.0541919  47.3205701  49.8150627  57.1548049  46.9756132
  47.2249937  58.9001919  44.6015701  48.3259937  59.1501919  44.1135701
  46.4059937  57.9841919  44.0895701  45.5156718  57.7876899  44.5240964
  46.7979937  57.1931919  42.9225701  47.8160869  57.4478536  42.6280657
  46.7419937  55.6931919  43.2485701  45.7706508  55.5108208  43.7082798
  46.7975281  55.1656276  42.2963664  47.8419937  55.1901919  44.1715701
  48.8032479  55.3897546  43.6980028  47.7787348  55.7406758  45.1102222
  47.7019937  53.4131919  44.5115701  48.3729937  52.7031919  43.0065701
  49.4025945  53.0358778  42.8748837  48.3490896  51.6156173  43.0752058
  47.7755029  53.0261481  42.1540413  45.9699937  57.4381919  41.6675701
  46.2249937  56.8251919  40.6385701  44.9879937  58.3311919  41.7375701
  44.7474585  58.7743673  42.6126917  44.1329937  58.5761919  40.5795701
  43.7005354  57.6389125  40.2294467  42.9949937  59.5281919  40.9605701
  43.4314279  60.4328353  41.3839432  42.4417628  59.7812167  40.0561289
  42.0479937  58.8981919  41.9755701  41.6750148  57.9680646  41.5467919
  42.6249730  58.6779572  42.8737314  40.8819937  59.7911919  42.3325701
  41.2609072  60.7453536  42.6987653  40.2744802  59.9592653  41.4433130
  40.0279937  59.1331919  43.4155701  40.6159368  59.0777805  44.3317323
  39.1486553  59.7543895  43.5857952  39.5989937  57.7651919  43.0185701
  40.4136581  57.1892942  42.8612060  39.0382635  57.3612017  43.7550981
  39.0538169  57.8163595  42.1698869  44.8319937  59.0511919  39.3095701
  44.3519937  58.7831919  38.2095701  45.9659937  59.7301919  39.4425701
  46.3516996  59.9335903  40.3535912  46.6929937  60.1981919  38.2605701
  46.0111959  60.7453785  37.6095419  47.8489937  61.1251919  38.6485701
  48.7393337  60.4978717  38.6917357  47.9494277  61.8420688  37.8336465
  47.6919937  61.8691919  39.9585701  48.3975133  62.6998329  39.9780262
  46.6745355  62.2559431  40.0160529  47.9459937  60.9871919  41.1715701
  47.0329937  60.3511919  41.6895701  49.1969937  60.9451919  41.6245701
  49.4211600  60.3751754  42.4276468  49.9162691  61.4835322  41.1631225
  47.2809937  59.0171919  37.4915701  47.7979937  59.1831919  36.3825701
  47.2069937  57.8281919  38.0865701  46.8009190  57.7550431  39.0084442
  47.7579937  56.6211919  37.4745701  48.4223312  56.8836339  36.6512360
  48.5589937  55.8401919  38.5195701  47.8884842  55.5438390  39.3262244
  49.0208062  54.9526121  38.0870988  49.6629937  56.6341919  39.1495701
  50.7589937  57.0741919  38.4405701  51.5469937  57.7701919  39.2415701
  52.4721029  58.2079949  38.8666028  51.0019937  57.7951919  40.4435701
  51.3824673  58.2546654  41.2585694  49.8229937  57.0911919  40.4145701
  49.2225438  56.9962141  41.3193023  46.7209937  55.6941919  36.8425701
  47.0649937  54.6181919  36.3505701  45.4599937  56.1151919  36.8485701
  45.2290293  57.0042472  37.2684931  44.3759937  55.3091919  36.2935701
  44.5493443  54.2528121  36.4987784  43.0479937  55.7201919  36.9335701
  43.2133437  55.8155508  38.0067268  42.7594235  56.6880192  36.5235242
  41.9429937  54.7151919  36.6805701  42.0889937  53.8761919  35.7695701
  40.9219937  54.7691919  37.3935701  44.2759937  55.4551919  34.7735701
  43.5489937  56.3151919  34.2645701  45.0119937  54.6191919  34.0485701
  45.6113584  53.9436491  34.5007905  44.9939937  54.6611919  32.5895701
  45.1935645  55.6752834  32.2433199  46.0649937  53.7341919  32.0255701
  47.0324780  54.2326677  32.0855302  46.1064495  52.7941892  32.5758213
  45.8539937  53.3781919  30.5825701  46.2169937  54.2621919  29.5715701
  46.6823470  55.2116870  29.8361552  45.9909937  53.9441919  28.2275701
  46.2789798  54.6446910  27.4436915  45.3969937  52.7301919  27.8925701
  45.2184312  52.4755289  26.8478873  45.0299937  51.8381919  28.9005701
  44.5634622  50.8861543  28.6474440  45.2619937  52.1681919  30.2365701
  44.9781520  51.4731937  31.0268304  43.6449937  54.2431919  32.0045701
  43.1319937  54.8661919  31.0705701  43.0899937  53.1701919  32.5515701
  43.5823192  52.6724262  33.2795429  41.8309937  52.6221919  32.0715701
  41.9378219  52.2710539  31.0452227  41.4209937  51.4401919  32.9525701
  41.0757499  51.7939827  33.9240319  40.6265102  50.8704227  32.4706375
  42.5439937  50.4721919  33.2205701  43.1989937  50.4691919  34.4485701
  42.8921888  51.1825398  35.2134919  44.2339937  49.5711919  34.7075701
  44.7354350  49.5814429  35.6753264  44.6259937  48.6631919  33.7315701
  45.4327097  47.9571702  33.9286551  43.9809937  48.6581919  32.4935701
  44.2825818  47.9519070  31.7200674  42.9439937  49.5641919  32.2475701
  42.4378877  49.5642436  31.2821911  40.7019937  53.6441919  31.9835701
  40.0549937  53.7621919  30.9445701  40.4609937  54.3851919  33.0595701
  40.9731102  54.2527455  33.9199735  39.3979937  55.3821919  33.0345701
  38.5016582  54.9502241  32.5895019  39.0619937  55.8551919  34.4475701
  40.0015134  56.1294867  34.9273246  38.4326504  56.7397825  34.3499664
  38.3479937  54.8181919  35.2915701  37.4667659  54.4691220  34.7533429
  39.0216993  53.9795183  35.4672105  37.9239937  55.4151919  36.6245701
  38.7823963  55.9152362  37.0731229  37.1324562  56.1430523  36.4462810
  37.4199937  54.3431919  37.5615701  37.0946027  54.8163422  38.4880419
  36.5728601  53.8422828  37.0930044  38.4799937  53.3471919  37.8605701
  39.2648843  53.8110730  38.2951513  38.1146864  52.6447571  38.4876554
  38.7813470  52.9083384  37.0022619  39.7569937  56.5901919  32.1725701
  38.8809937  57.1981919  31.5515701  41.0409937  56.9361919  32.1305701
  41.7295602  56.4249137  32.6640212  41.4849937  58.0791919  31.3465701
  40.8919558  58.9565559  31.6047128  42.9539937  58.3831919  31.6285701
  43.1794433  59.3799533  31.2494417  43.1104383  58.3612698  32.7070619
  43.8079937  57.4381919  31.0085701  44.7221802  57.6562854  31.2042690
  41.3019937  57.8381919  29.8575701  41.2229937  58.7841919  29.0815701
  41.2319937  56.5711919  29.4585701  41.3463655  55.8197158  30.1236281
  41.0659937  56.2281919  28.0465701  41.5935975  56.9840561  27.4648462
  41.6989937  54.8701919  27.7685701  41.1755342  54.1015184  28.3371043
  41.6272153  54.6463322  26.7042229  42.7476542  54.8899780  28.0652500
  39.6049937  56.2291919  27.5895701  39.3219937  56.1741919  26.3925701
  38.6809937  56.2971919  28.5415701  38.9602675  56.3236852  29.5118297
  37.2539937  56.3001919  28.2315701  37.0506540  55.6284912  27.3975615
  36.4579937  55.8271919  29.4435701  36.7278777  56.4744532  30.2780248
  35.4024017  55.9611244  29.2071646  36.7109937  54.3811919  29.8235701
  37.7578289  54.2657951  30.1044982  36.0770512  54.1206181  30.6711078
  36.3449937  53.2871919  28.4575701  37.4789937  51.9211919  28.7775701
  37.2567960  51.4842916  29.7511436  37.3618521  51.1622282  28.0040375
  38.5044987  52.2905152  28.7711554  36.7779937  57.6881919  27.8185701
  37.3829937  58.6901919  28.1945701  35.6619937  57.7681919  27.0715701
  35.0249937  59.0671919  26.7865701  35.7465166  59.7344184  26.3150685
  34.6706629  59.5140677  27.7154677  33.8829937  58.6861919  25.8525701
  34.2221414  58.6352132  24.8179305  33.0595435  59.3961578  25.9298970
  33.4759937  57.3381919  26.3615701  32.8877099  56.7608269  25.6483585
  32.9330111  57.4125087  27.3037731  34.8229937  56.6621919  26.5895701
  34.7516894  55.9465902  27.4086721  35.3359937  55.9531919  25.3385701
  34.9099937  54.8341919  25.0395701  36.2339937  56.6101919  24.6055701
  36.5407059  57.5246420  24.9052499  36.8229937  56.0441919  23.3905701
  36.1329150  56.1575613  22.5544852  38.1289937  56.7701919  23.0495701
  38.4499524  57.2577892  23.9700774  38.8438449  55.9916873  22.7830772
  38.0579937  57.7971919  21.9305701  37.0647572  58.2454218  21.9564929
  38.8071553  58.5634554  22.1298096  38.3049937  57.1921919  20.5575701
  38.6319937  57.9571919  19.6265701  38.1689937  55.9571919  20.4085701
  37.1339937  54.5801919  23.6615701  36.7439937  53.6901919  22.9025701
  37.8579937  54.3441919  24.7505701  38.1819241  55.0984401  25.3390241
  38.2019937  52.9881919  25.1215701  38.0720008  52.9043375  26.2005370
  37.4974281  52.3257810  24.6186800  39.6119937  52.5721919  24.7615701
  40.4379937  53.3821919  24.3315701  39.8839937  51.2861919  24.9375701
  39.1801202  50.6592913  25.3004157  41.1949937  50.7501919  24.6465701
  41.6512903  51.2982810  23.8222577  42.0959937  50.8851919  25.8845701
  43.0237000  50.3728130  25.6297600  42.2988904  51.9438184  26.0465664
  41.5149937  50.2801919  27.1545701  41.4979937  48.8981919  27.3545701
  41.9384485  48.2511842  26.5959660  40.9289937  48.3411919  28.5035701
  40.9400419  47.2618442  28.6551891  40.3679937  49.1721919  29.4655701
  39.7749937  48.6321919  30.5955701  39.8067865  47.6728920  30.6138073
  40.3789937  50.5471919  29.2875701  39.9426813  51.2012920  30.0424774
  40.9499937  51.0921919  28.1395701  40.9615387  52.1727522  27.9968949
  41.0839937  49.2971919  24.2385701  40.0979937  48.6311919  24.5475701
  42.0949937  48.8221919  23.5245701  42.8735179  49.4261162  23.3025907
  42.1559937  47.4391919  23.0995701  41.1530057  47.0307996  22.9757557
  42.9229937  47.2831919  21.7615701  43.9026573  47.7529890  21.8490300
  43.0959937  45.8071919  21.4395701  42.1166796  45.3367800  21.3514935
  43.6355174  45.7008991  20.4984449  43.6599718  45.3243511  22.2376272
  42.1779937  47.9861919  20.6345701  42.0839064  49.0470030  20.8667974
  42.7307287  47.8663982  19.7027798  41.1853739  47.5490421  20.5263724
  42.9509937  46.7261919  24.1915701  43.9329937  47.2671919  24.7035701
  42.5199937  45.5271919  24.5595701  41.6897012  45.1293678  24.1442996
  43.2199937  44.7561919  25.5785701  44.1314621  45.2788315  25.8686952
  42.3439937  44.5671919  26.8265701  42.1692743  45.5577613  27.2465041
  41.3975854  44.1434363  26.4906498  42.9589937  43.6581919  27.8995701
  42.8417582  42.6225120  27.5806282  44.0197399  43.8919253  27.9906108
  42.3039937  43.8241919  29.2675701  42.2839937  44.9201919  29.8265701
  41.7709937  42.7351919  29.8115701  41.3255048  42.7926133  30.7161937
  41.8138336  41.8551015  29.3179032  43.5549937  43.4191919  24.9545701
  42.6729937  42.6201919  24.6555701  44.8439937  43.1991919  24.7305701
  45.5261357  43.9029225  24.9745883  45.3119937  41.9701919  24.1285701
  44.4644537  41.3706131  23.7964851  46.1929937  42.2821919  22.9195701
  46.9468468  42.9982528  23.2467728  46.6793286  41.3516424  22.6268997
  45.4349937  42.8521919  21.7325701  44.8248135  42.0605124  21.2978007
  44.7875385  43.6450045  22.1072021  46.3679937  43.4191919  20.6655701
  45.9159937  43.6091919  19.5175701  47.5459937  43.6841919  20.9835701
  46.1069937  41.1811919  25.1485701  46.8369937  41.7501919  25.9615701
  45.9589937  39.8681919  25.1035701  45.3532878  39.4426042  24.4164786
  46.6719937  39.0021919  26.0215701  47.5664309  39.5136798  26.3771843
  45.8049937  38.6281919  27.2345701  44.8566192  38.2915602  26.8158051
  46.3146671  37.7856545  27.7019712  45.5439937  39.7081919  28.2805701
  46.4169681  40.3543361  28.3728422  44.6796979  40.3053656  27.9899183
  45.2649937  39.0261919  29.6335701  44.4432393  38.3237902  29.4941051
  46.1619851  38.4813547  29.9279481  44.9099937  39.9551919  30.7025701
  45.6613714  40.4843084  31.1215769  43.6709937  40.1471919  31.1505701
  42.6569937  39.4671919  30.6205701  42.8303415  38.8052596  29.8776729
  41.7188367  39.6162354  30.9637131  43.4459937  41.0151919  32.1295701
  44.2169938  41.5283743  32.5324383  42.5048554  41.1583683  32.4669985
  47.0799937  37.6961919  25.3665701  46.5309937  37.2781919  24.3435701
  48.0579937  37.0641919  25.9935701  48.4581708  37.4983607  26.8129937
  48.5289937  35.7501919  25.6145701  47.8417920  35.3489883  24.8696616
  49.9519937  35.7631919  25.0165701  50.6319892  36.2496217  25.7159216
  50.4169937  34.3471919  24.7645701  49.7377036  33.8602353  24.0649004
  51.4218578  34.3638747  24.3425879  50.4272127  33.7949150  25.7042437
  49.9479937  36.4711919  23.7715701  50.8346928  36.4765971  23.4036898
  48.5569937  35.0891919  26.9905701  49.1419937  35.6291919  27.9405701
  47.8869937  33.9521919  27.1135701  47.3833275  33.5645852  26.3285983
  47.8399937  33.2411919  28.3825701  48.4206554  33.7751855  29.1347550
  46.3819937  33.0851919  28.8725701  45.8111114  32.5332515  28.1258736
  46.3499937  32.3311919  30.1945701  46.9203200  32.8827922  30.9419426
  45.3179026  32.2276078  30.5294717  46.7888135  31.3425072  30.0602607
  45.7389937  34.4671919  29.0305701  46.2196383  34.9536375  29.8793647
  45.9517559  35.0299545  28.1216531  44.2429937  34.4211919  29.2565701
  44.0294638  33.8589467  30.1656274  43.8591301  35.4361930  29.3591407
  43.7615814  33.9352612  28.4079162  48.4659937  31.8661919  28.2325701
  47.9689937  31.0321919  27.4805701  49.5629937  31.6401919  28.9475701
  49.9423689  32.3687049  29.5353138  50.2589937  30.3631919  28.8955701
  49.9995114  29.8439064  27.9730135  51.7799937  30.5631919  28.9345701
  52.0505909  31.1446560  29.8159190  52.2854304  29.5980219  28.9674451
  52.3349937  31.2991919  27.7465701  52.4009937  32.6861919  27.7385701
  52.0497244  33.2398343  28.6093111  52.9079937  33.3701919  26.6365701
  52.9548666  34.4591480  26.6454168  53.3549937  32.6631919  25.5235701
  53.7514504  33.1937991  24.6579039  53.2939937  31.2741919  25.5195701
  53.6410698  30.7112885  24.6530956  52.7859937  30.6011919  26.6305701
  52.7379011  29.5122564  26.6331372  49.8569937  29.4701919  30.0635701
  50.2009937  29.7431919  31.2195701  49.1169937  28.4101919  29.7685701
  48.8125014  28.2237778  28.8237773  48.7219937  27.4861919  30.8125701
  48.5620208  28.0352310  31.7405054  47.4279937  26.7551919  30.4475701
  47.5075218  26.3485182  29.4394079  47.2363973  25.9452702  31.1514293
  46.2149937  27.6301919  30.4615701  45.8529937  28.3571919  29.3355701
  46.4617947  28.2803742  28.4347037  44.7219937  29.1811919  29.3475701
  44.4474975  29.7447318  28.4558441  43.9439937  29.2811919  30.5045701
  43.0618353  29.9211968  30.5216044  44.3009937  28.5581919  31.6385701
  43.7005095  28.6313548  32.5453039  45.4329937  27.7361919  31.6135701
  45.7140279  27.1685455  32.5006425  49.8539937  26.4861919  30.9735701
  50.1669937  25.7311919  30.0515701  50.4699937  26.5011919  32.1495701
  50.1815180  27.1811399  32.8384473  51.5789937  25.6141919  32.4765701
  52.4940323  25.9584999  31.9946411  51.7959937  25.6081919  33.9875701
  50.8466735  25.8766221  34.4510737  52.0632465  24.5902519  34.2712499
  52.8729937  26.5611919  34.4565701  52.9086003  27.4131319  33.7775772
  52.6239139  26.9069842  35.4598093  54.2249937  25.8771919  34.4795701
  54.4057502  25.4157611  33.5087417  54.9961206  26.6219584  34.6765107
  54.2629937  24.8071919  35.5655701  53.9626256  25.2646505  36.5082318
  53.5531273  24.0238221  35.3000130  55.6199937  24.2171919  35.7115701
  56.2778471  24.9428433  35.9580627  55.6055122  23.5151148  36.4375026
  55.8983347  23.7928737  34.8383121  51.3889937  24.1831919  31.9975701
  50.4159937  23.5251919  32.3675701  52.3299937  23.7151919  31.1775701
  53.0697070  24.3344123  30.8784218  52.3139937  22.3511919  30.6535701
  53.1604652  22.1917244  29.9856214  52.4139937  21.3601919  31.8145701
  51.5349928  21.4839267  32.4471413  52.4185176  20.3553473  31.3922351
  53.6619937  21.5641919  32.6415701  53.6149937  21.2861919  33.8605701
  54.6919937  21.9951919  32.0705701  51.0719937  22.0421919  29.8335701
  50.6019937  20.9041919  29.8065701  50.5489937  23.0521919  29.1535701
  50.9576653  23.9748457  29.1959594  49.3529937  22.8651919  28.3515701
  49.3706218  21.8921458  27.8606834  48.1249937  22.9311919  29.2625701
  48.4299172  22.6423460  30.2683976  47.7799250  23.9650962  29.2709123
  47.0029937  22.0291919  28.7975701  46.1849937  21.6331919  29.6515701
  46.9299937  21.7241919  27.5865701  49.2819937  23.9381919  27.2765701
  50.2769937  24.6031919  26.9945701  48.1029937  24.1041919  26.6855701
  47.3067579  23.5458183  26.9581995  47.9249937  25.0901919  25.6335701
  48.7224700  24.9300478  24.9079775  46.9620435  24.8866524  25.1651707
  47.9559937  26.5351919  26.0895701  48.2759937  26.8331919  27.2425701
  47.6149937  27.4401919  25.1745701  47.3602958  27.1510486  24.2409618
  47.6109937  28.8631919  25.4815701  47.4873498  29.0112759  26.5543620
  48.9359937  29.5041919  25.0475701  48.9540169  30.5323175  25.4091390
  49.7635103  28.9494914  25.4898639  49.1129937  29.5171919  23.5275701
  48.4209937  30.2501919  22.8095701  50.0339937  28.6971919  23.0345701
  50.1942894  28.6634946  22.0379410  50.5698993  28.1110374  23.6585324
  46.4699937  29.5631919  24.7695701  46.0209937  29.1161919  23.7105701
  45.9889937  30.6501919  25.3695701  46.4088324  30.9835241  26.2255634
  44.9269937  31.4461919  24.7645701  44.4593193  30.8533865  23.9784648
  43.8399937  31.8791919  25.7675701  44.4250633  32.3794355  26.5392885
  43.2106512  32.6094432  25.2588845  42.9659937  30.8161919  26.4055701
  42.7309937  29.5891919  25.7885701  43.2297644  29.3619000  24.8464100
  41.8579937  28.6451919  26.3705701  41.6810754  27.6870405  25.8819520
  41.2199937  28.9421919  27.5775701  40.3589937  28.0351919  28.1625701
  40.2668208  27.2249623  27.6559816  41.4459937  30.1531919  28.1995701
  40.9510361  30.3894093  29.1415461  42.3159937  31.0801919  27.6145701
  42.5013583  32.0370102  28.1026673  45.5869937  32.7321919  24.3025701
  46.5949937  33.1571919  24.8675701  44.9979937  33.3441919  23.2845701
  44.1765720  32.9191907  22.8786887  45.4429937  34.6261919  22.7585701
  46.1507438  35.0698513  23.4588240  46.1249937  34.4861919  21.3975701
  45.6067546  33.6946735  20.8562513  45.9935845  35.4317018  20.8714117
  47.6079937  34.1551919  21.4825701  48.0889819  34.8735966  22.1463817
  47.7191387  33.1513995  21.8926307  48.2619937  34.2171919  20.1085701
  47.8705527  33.4040547  19.4972757  48.0132500  35.1718101  19.6449645
  49.7709937  34.0861919  20.2185701  50.1946330  34.1429384  19.2158687
  50.1449789  34.9162344  20.8179562  50.1669937  32.8001919  20.8515701
  49.8209159  32.0309257  20.2960890  51.1741169  32.7486508  20.9076634
  49.7748956  32.7475975  21.7808666  44.1269937  35.3591919  22.6065701
  43.2059937  34.8541919  21.9685701  44.0289937  36.5391919  23.2015701
  44.8003625  36.9336603  23.7206888  42.7899937  37.2851919  23.1405701
  42.1243835  36.8168195  22.4155256  42.0859937  37.2961919  24.5265701
  41.0649628  37.6568812  24.4020739  42.0599937  35.8981919  25.1235701
  43.0807536  35.5369915  25.2488024  41.5633848  35.9259173  26.0934722
  41.5171771  35.2279631  24.4570538  42.8009937  38.1571919  25.4225701
  42.3646463  38.1625054  26.2776567  42.9859937  38.7221919  22.7065701
  44.0639937  39.2921919  22.8645701  41.9239937  39.2911919  22.1485701
  41.0863168  38.7391652  22.0316802  41.8989937  40.6801919  21.7215701
  42.6844756  41.2259689  22.2442984  42.1229937  40.8241919  20.2155701
  43.0970972  40.3971111  19.9771931  41.3440533  40.2594645  19.7032863
  42.0799937  42.2871919  19.7555701  41.0769963  42.6682535  19.9476351
  42.8008878  42.8461343  20.3522251  42.4109937  42.4501919  18.2735701
  43.3484542  41.9368016  18.0598007  41.6113379  42.0076282  17.6796109
  42.5509937  43.8601919  17.8965701  43.4652721  44.1604844  17.5899451
  41.5639937  44.7541919  17.9225701  40.3449937  44.4001919  18.3025701
  40.1616684  43.4450333  18.5749007  39.6047553  45.0871448  18.3181410
  41.7989937  46.0111919  17.5765701  42.7279665  46.2885862  17.2934409
  41.0481027  46.6863386  17.5975059  40.5059937  41.1881919  22.0705701
  39.5049937  40.6111919  21.6525701  40.4469937  42.2671919  22.8375701
  41.2929832  42.7080780  23.1692636  39.1749937  42.8261919  23.2475701
  38.3845456  42.4139008  22.6204282  38.8909937  42.4531919  24.6965701
  39.6692068  42.8667953  25.3379878  37.9232645  42.8575323  24.9934021
  38.8769586  41.3679072  24.7968668  39.1449937  44.3321919  23.1085701
  40.1749937  44.9961919  23.1595701  37.9449937  44.8641919  22.9405701
  37.1335953  44.2675587  22.8646707  37.7549937  46.2941919  22.8495701
  38.7067737  46.8002920  23.0110533  37.2189937  46.6881919  21.4695701
  36.3915281  46.0208218  21.2287028  36.8522354  47.7126870  21.5328007
  38.2799937  46.5951919  20.3795701  39.1132931  47.2338943  20.6724390
  38.6143708  45.5585572  20.3385867  37.7749937  47.0181919  19.0115701
  38.5789937  46.9911919  18.0555701  36.5809937  47.3711919  18.8925701
  36.7619937  46.6481919  23.9425701  35.6659937  46.0951919  24.0085701
  37.1719937  47.5481919  24.8245701  38.1103737  47.9189880  24.7792647
  36.3179937  47.9711919  25.9165701  35.2993378  47.5988600  25.8079048
  36.8789937  47.4871919  27.2745701  36.4292796  46.5283727  27.5324891
  38.3589937  47.3311919  27.1755701  38.8094867  48.2897713  26.9181161
  38.7537430  46.9901641  28.1326352  38.5968962  46.5994706  26.4035027
  36.5019937  48.4461919  28.3875701  35.4163231  48.5108926  28.4599250
  36.9076767  48.0845636  29.3324225  36.9106686  49.4332734  28.1713393
  36.1719937  49.4811919  25.8805701  37.1529937  50.2261919  25.8585701
  34.9219937  49.9171919  25.8425701  34.1616761  49.2523778  25.8487835
  34.5999937  51.3281919  25.7815701  35.1201361  51.8644547  26.5752786
  35.0339937  51.9061919  24.4365701  34.4069603  52.7768264  24.2444146
  36.0715178  52.2227751  24.5434298  34.9189937  50.9351919  23.2775701
  35.3388227  51.4197093  22.3960445  35.5108998  50.0535672  23.5235115
  33.4929937  50.5211919  22.9935701  33.0569099  50.1007405  23.8997437
  32.9214637  51.3979056  22.6888966  33.4559937  49.4811919  21.8835701
  33.8870083  48.5556860  22.2653629  32.4154852  49.3100750  21.6075989
  34.2219937  49.9281919  20.6825701  35.1862741  50.0863939  20.9379818
  34.1753780  49.2150158  19.9689127  33.8225015  50.7855460  20.3283823
  33.1139937  51.5101919  25.9545701  32.3649937  50.5411919  26.0085701
  32.6889937  52.7611919  26.0455701  33.3354466  53.5370134  26.0282759
  31.2799937  53.0461919  26.2035701  30.8087460  52.2507926  26.7809475
  31.0699937  54.3711919  26.9355701  31.7858343  55.1184777  26.5931735
  30.0568222  54.7257097  26.7460955  31.2219937  54.2821919  28.4255701
  32.4719937  54.3831919  29.0215701  33.3520059  54.5078938  28.3905963
  32.6099937  54.3271919  30.4035701  33.5986226  54.4100197  30.8550712
  31.4919937  54.1661919  31.2075701  31.5959812  54.1225308  32.2917197
  30.2329937  54.0601919  30.6245701  29.3480395  53.9322922  31.2479463
  30.1059937  54.1181919  29.2365701  29.1219289  54.0345006  28.7753628
  30.5599937  53.1141919  24.8645701  31.1219937  53.5321919  23.8465701
  29.3139937  52.6631919  24.8915701  28.9582310  52.3311037  25.7765841
  28.4079937  52.7021919  23.7555701  28.8534135  53.3057835  22.9647619
  28.1249937  51.3031919  23.2025701  27.7335566  50.7147395  24.0323893
  27.3511936  51.4200154  22.4438306  29.3279937  50.5881919  22.5955701
  29.8426568  51.3006483  21.9508774  29.9931528  50.2838740  23.4036871
  28.9269937  49.3671919  21.7825701  27.9089937  48.7321919  22.1245701
  29.6299937  49.0301919  20.8085701  27.1919937  53.2391919  24.4975701
  26.4089937  52.4741919  25.0695701  27.0669937  54.5621919  24.5265701
  27.7207882  55.1629321  24.0451521  25.9779937  55.1781919  25.2575701
  25.8309942  56.2172008  24.9626960  25.0449807  54.6293142  25.1298233
  26.3819937  55.1321919  26.7205701  27.5459937  55.3801919  27.0425701
  25.4459937  54.8071919  27.6075701  24.4984908  54.6211943  27.3113565
  25.7549937  54.7251919  29.0345701  26.5000740  55.4776495  29.2929538
  24.4989937  54.9711919  29.8755701  23.7138440  54.3143643  29.5011151
  24.7343983  54.7045023  30.9058911  24.0229937  56.4071919  29.8225701
  22.9639937  56.6931919  30.4235701  24.6949937  57.2491919  29.1905701
  26.3239937  53.3601919  29.4185701  26.7099937  53.1471919  30.5675701
  26.3799937  52.4391919  28.4615701  26.0361855  52.6438265  27.5341975
  26.8729937  51.0921919  28.7355701  26.8282476  50.8822203  29.8042183
  26.0179937  50.0441919  27.9905701  26.0713193  50.2430358  26.9201881
  26.5259937  48.6311919  28.2715701  26.4725326  48.4314387  29.3417758
  25.9087523  47.9095125  27.7365083  27.5596883  48.5429694  27.9372155
  24.6539937  50.1531919  28.4185701  24.1206447  49.5023455  27.9564683
  28.3409937  50.8441919  28.3865701  28.8049937  51.2061919  27.3035701
  29.0619937  50.2181919  29.3155701  28.6302811  49.9551255  30.1899382
  30.4689937  49.8791919  29.1075701  30.9390232  50.6302504  28.4726822
  31.2159937  49.8321919  30.4465701  30.9431296  50.7772109  30.9162333
  30.7834374  49.0073814  31.0128586  32.7449937  49.6931919  30.4275701
  33.1287464  49.8603938  31.4339886  33.1489937  48.3001919  29.9545701
  32.7659660  48.1324221  28.9479709  34.2359736  48.2194294  29.9472946
  32.7341020  47.5520336  30.6300140  33.3429937  50.7681919  29.5195701
  33.0726629  51.7545313  29.8966048  34.4284801  50.6700786  29.5056273
  32.9547624  50.6474310  28.5082382  30.4509937  48.5031919  28.4575701
  29.8919937  47.5571919  29.0095701  31.0539937  48.4021919  27.2785701
  31.4883798  49.2193555  26.8740312  31.0749937  47.1611919  26.5175701
  30.4553340  46.3927127  26.9796964  30.5619937  47.4091919  25.0685701
  31.1778220  48.1784229  24.6025889  30.6389937  46.1301919  24.2455701
  30.0230040  45.3605796  24.7107093  30.2760697  46.3245500  23.2363072
  31.6731014  45.7886853  24.1997866  29.1379937  47.9311919  25.1045701
  29.1078970  48.8681988  25.6606405  28.7871968  48.1018809  24.0867752
  28.4943125  47.1990773  25.5922006  32.4499937  46.5021919  26.4325701
  33.4739937  47.1801919  26.3495701  32.4539937  45.1711919  26.4465701
  31.5778585  44.6796399  26.5507956  33.6779937  44.3871919  26.3435701
  34.5014349  45.0199309  26.0123827  34.0359937  43.7931919  27.7165701
  34.1248090  44.5965503  28.4478883  33.2265477  43.1242867  28.0089108
  35.3369937  43.0041919  27.7005701  36.2359937  43.2761919  26.9025701
  35.4519937  42.0331919  28.6025701  36.2946067  41.4773948  28.6371065
  34.6961644  41.8562351  29.2487195  33.4499937  43.2801919  25.3115701
  32.8159937  42.2661919  25.6025701  33.9409937  43.4971919  24.0915701
  34.4165310  44.3639200  23.8848189  33.7919937  42.5131919  23.0165701
  33.0461418  41.7700758  23.2986741  33.3389937  43.1941919  21.7195701
  34.1231079  43.8963200  21.4362323  33.2576994  42.4156431  20.9610498
  32.0039937  43.9381919  21.8325701  31.2579838  43.2544243  22.2375786
  32.1316255  44.7802418  22.5128378  31.5369937  44.4521919  20.4655701
  32.3705687  44.9698084  19.9908861  31.2484727  43.5949697  19.8572732
  30.4009937  45.3711919  20.5495701  30.5342878  46.2998088  20.1754008
  29.2229937  45.0661919  21.0855701  29.0119937  43.8601919  21.5965701
  29.7500964  43.1710185  21.5780084  28.1142289  43.6367934  22.0017997
  28.2489937  45.9681919  21.1055701  28.4060595  46.8853200  20.7127515
  27.3554544  45.7330981  21.5135126  35.1399937  41.8291919  22.8195701
  36.1609937  42.4941919  22.6415701  35.1299937  40.4991919  22.8325701
  34.2545928  40.0041267  22.9257528  36.3599937  39.7181919  22.7345701
  37.2178136  40.3275713  22.4501391  36.6519937  39.0131919  24.0865701
  35.8618531  38.2890120  24.2849175  38.0029937  38.2941919  24.0405701
  38.7937396  39.0178443  23.8427096  38.1884919  37.8066932  24.9976679
  37.9899032  37.5454511  23.2485379  36.5889937  40.0221919  25.2325701
  37.4661307  39.8626787  25.8596962  36.6322395  41.0196533  24.7951914
  35.3339937  39.8941919  26.0765701  35.2902850  38.8970744  26.5146866
  35.3527533  40.6393999  26.8718137  34.4563932  40.0540468  25.4501807
  36.4159937  38.6211919  21.6805701  35.3959937  38.0371919  21.3135701
  37.6349937  38.3401919  21.2225701  38.4154060  38.8803581  21.5679345
  37.9059937  37.2531919  20.2845701  36.9788145  36.7205307  20.0731227
  38.4799937  37.7791919  18.9655701  39.3819303  38.3381322  19.2149602
  38.7469382  36.9074854  18.3681017  37.5409937  38.6641919  18.1745701
  36.6433950  38.0940476  17.9350857  37.2740596  39.5144189  18.8022320
  38.1779937  39.1621919  16.8955701  39.1589937  39.9371919  16.9735701
  37.7019937  38.7701919  15.8105701  38.9689937  36.4031919  20.9865701
  40.0109937  36.9281919  21.3705701  38.7149937  35.1081919  21.1575701
  37.8271340  34.7184181  20.8749383  39.6779937  34.2301919  21.8195701
  40.6181909  34.7606487  21.9703811  39.1409937  33.7771919  23.1945701
  38.9387904  34.7180860  23.7063623  38.2004828  33.2645571  22.9927164
  40.0309937  32.8861919  24.0885701  41.0637126  33.2259749  24.0102112
  39.5769937  32.9651919  25.5505701  38.5444423  32.6251054  25.6298010
  40.2160647  32.3308317  26.1647983  39.6471895  33.9958939  25.8981708
  39.9829937  31.4461919  23.6095701  40.3432811  31.3922647  22.5822511
  40.6146452  30.8289778  24.2484476  38.9565471  31.0820999  23.6536521
  40.0369937  33.0091919  20.9795701  39.1739937  32.3901919  20.3565701
  41.3219937  32.6791919  20.9585701  41.9927823  33.2573300  21.4442638
  41.8119937  31.5181919  20.2275701  40.9745339  30.8725006  19.9632919
  42.5279937  31.9441919  18.9395701  42.9973002  32.9083681  19.1350567
  43.2983670  31.2000465  18.7374000  41.6089937  32.0631919  17.7325701
  42.2287925  32.0375493  16.8363041  40.9396574  31.2029117  17.7355522
  40.7879937  33.3441919  17.7445701  39.8793859  33.1794149  17.1654507
  40.5235690  33.5771886  18.7760213  41.5699937  34.5111919  17.1435701
  40.9716399  35.4166899  17.2443012  42.5000832  34.6271579  17.6999734
  41.8799937  34.2761919  15.6965701  41.0182732  34.1691375  15.1807438
  42.3958570  35.0636265  15.3306031  42.4347978  33.4374157  15.6030500
  42.7699937  30.7101919  21.0985701  43.7889937  31.2251919  21.5565701
  42.4339937  29.4471919  21.3285701  41.5832484  29.0578433  20.9481238
  43.2829937  28.5891919  22.1355701  44.0898209  29.1836067  22.5642894
  42.6901232  28.1499635  22.9378683  43.8819937  27.4751919  21.2975701
  43.2159937  26.9251919  20.4185701  45.1379937  27.1321919  21.5655701
  45.6611624  27.6024071  22.2903401  45.8029937  26.0861919  20.8025701
  45.0698048  25.4033111  20.3733768  46.6719937  26.6791919  19.6775701
  47.2156357  25.8740177  19.1833552  45.7949937  27.3981919  18.6605701
  45.2513499  28.2038561  19.1539840  46.4201170  27.8133162  17.8700049
  45.0850724  26.6926255  18.2289603  47.7089937  27.6321919  20.2785701
  47.1665910  28.4950853  20.6649830  48.1888621  27.1059961  21.1037633
  48.7689937  28.1001919  19.2905701  48.2898899  28.6269178  18.4652707
  49.4647690  28.7713039  19.7941620  49.3121597  27.2378277  18.9040490
  46.7059937  25.1881919  21.6325701  47.1659937  25.5601919  22.7175701
  46.9499937  24.0001919  21.0915701  46.4470155  23.7489813  20.2525197
  47.8199937  23.0031919  21.6995701  47.8021915  22.0817877  21.1175078
  49.2569937  23.5301919  21.7375701  49.2837125  24.3878305  22.4097616
  49.8962375  22.7402062  22.1317655  49.7559937  23.9471919  20.3655701
  49.5509937  23.1761919  19.4055701  50.3509937  25.0401919  20.2465701
  47.4149937  22.5121919  23.0835701  48.2699937  22.1441919  23.8925701
  46.1179937  22.4941919  23.3615701  45.4231291  22.8434647  22.7171548
  45.6739937  22.0031919  24.6515701  46.3783054  22.3159896  25.4224150
  44.2879937  22.5531919  25.0025701  43.6935137  22.5507429  24.0889582
  43.7780726  21.9692619  25.7687987  44.3169937  23.9671919  25.4905701
  44.1029937  25.0271919  24.6145701  43.8525222  24.8173070  23.5747085
  44.2059937  26.3471919  25.0545701  44.0380474  27.1697317  24.3593557
  44.5239937  26.6131919  26.3845701  44.6058680  27.6429695  26.7323555
  44.7369937  25.5621919  27.2685701  44.9859977  25.7628066  28.3106118
  44.6309937  24.2461919  26.8175701  44.7948919  23.4186571  27.5078044
  45.6519937  20.4841919  24.6395701  45.3299937  19.8661919  23.6225701
  46.0149937  19.8891919  25.7725701  46.3066433  20.4449654  26.5638701
  46.0319937  18.4401919  25.9035701  46.3866400  17.9873934  24.9776658
  46.9659937  18.0231919  27.0405701  46.5769675  18.4669562  27.9569931
  46.9187208  16.9367677  27.1150534  48.4079937  18.4541919  26.8425701
  48.7684659  18.0491395  25.8970051  48.4472473  19.5429795  26.8093631
  49.2839937  17.9511919  27.9745701  48.8767129  18.3146207  28.9180428
  49.2689480  16.8613116  27.9687391  50.7169937  18.4391919  27.8195701
  51.0811070  18.1185263  26.8435088  50.7115186  19.5282343  27.8649121
  51.6119937  17.9021919  28.8845701  51.6175446  16.8930859  28.8424521
  52.5495822  18.2502220  28.7434926  51.2750172  18.1995691  29.7890659
  44.6209937  17.9311919  26.1755701  43.9719937  18.3351919  27.1435701
  44.1549937  17.0421919  25.3055701  44.7368409  16.7627394  24.5287436
  42.8249937  16.4611919  25.4155701  42.0659919  17.1964221  25.1482650
  42.7119937  15.2711919  24.4585701  43.3818681  15.4642210  23.6206517
  43.0517754  14.3874305  24.9985833  41.3129937  15.0371919  23.9405701
  41.3387723  14.1981680  23.2452463  40.6687142  14.7896025  24.7841948
  40.7709937  16.2601919  23.2345701  41.4889937  16.8051919  22.3665701
  39.6329937  16.6761919  23.5455701  42.5509937  15.9941919  26.8415701
  41.4399937  16.1271919  27.3535701  43.5869937  15.4541919  27.4735701
  44.4678379  15.3863975  26.9840633  43.5089937  14.9301919  28.8325701
  42.4819793  14.6635047  29.0820064  44.3759937  13.6771919  28.9305701
  44.4184101  13.3632147  29.9735075  43.8973969  12.8986710  28.3364739
  45.7899937  13.9131919  28.4135701  45.9539937  14.1021919  27.1875701
  46.7369937  13.9231919  29.2315701  43.9649937  15.9201919  29.9035701
  44.0449937  15.5641919  31.0785701  44.2669937  17.1521919  29.5005701
  44.1766908  17.4159490  28.5298091  44.7349937  18.1521919  30.4455701
  45.5542344  17.6992251  31.0039294  45.1148897  18.9878780  29.8578566
  43.6949937  18.6691919  31.4255701  42.5439937  18.2371919  31.4155701
  44.1149937  19.6011919  32.2775701  45.0813141  19.8941919  32.2557700
  43.2339937  20.1991919  33.2725701  42.6856127  19.4177916  33.7986794
  44.0469937  20.9981919  34.2935701  44.6532461  21.7284844  33.7576315
  43.3646989  21.5171508  34.9668125  44.9599937  20.1231919  35.1135701
  44.5249937  19.1221919  35.6725701  46.2309937  20.4981919  35.1985701
  46.8826471  19.9449865  35.7365399  46.5402207  21.3348982  34.7248593
  42.2069937  21.1131919  32.6325701  41.1649937  21.3981919  33.2255701
  42.5029937  21.5761919  31.4235701  43.3820356  21.3425605  30.9844789
  41.5879937  22.4621919  30.7115701  41.0323255  23.0829143  31.4144469
  42.3449937  23.3651919  29.7155701  42.6426627  22.7754534  28.8485626
  41.4479937  24.5031919  29.2685701  41.1502687  25.0936962  30.1350371
  41.9878923  25.1374053  28.5654460  40.5601302  24.0976436  28.7834637
  43.6289937  23.9011919  30.3595701  44.3020068  23.0512843  30.4727572
  44.0594865  24.6136808  29.6559118  43.4359937  24.5691919  31.6945701
  43.0059349  23.8571386  32.3989347  44.3986721  24.9153198  32.0707947
  42.7634123  25.4195343  31.5820895  40.5199937  21.6741919  29.9475701
  39.3449937  21.6831919  30.3215701  40.9189937  20.9901919  28.8795701
  41.8756885  21.0286990  28.5580866  39.9559937  20.2181919  28.0975701
  39.0895701  20.8379681  27.8667311  40.5839937  19.7411919  26.7785701
  41.4852512  19.1971247  27.0611035  39.8825412  19.0576674  26.3001784
  40.9509937  20.8651919  25.7995701  41.6994385  21.5105804  26.2593581
  41.5079937  20.2791919  24.5205701  40.7598973  19.6340055  24.0599346
  41.7651487  21.0848992  23.8329599  42.4007541  19.6959306  24.7461483
  39.7179937  21.7091919  25.4985701  39.3410837  22.1455449  26.4235751
  39.9831540  22.5057120  24.8033385  38.9467424  21.0807410  25.0532391
  39.4219937  19.0331919  28.8935701  38.3929937  18.4531919  28.5455701
  40.1179937  18.6831919  29.9685701  40.9626028  19.1728077  30.2274354
  39.6779937  17.5791919  30.8045701  39.1705265  16.8415255  30.1829397
  40.5472360  17.1203104  31.2756805  38.7209937  18.0561919  31.8885701
  38.1549937  17.2451919  32.6305701  38.5369937  19.3741919  31.9805701
  39.0412166  19.9953605  31.3641220  37.6489937  19.9621919  32.9825701
  37.7586455  21.0466423  32.9891331  36.1909937  19.6191919  32.6555701
  36.1216896  18.5662345  32.3824823  35.5444121  19.8155093  33.5108430
  35.6289937  20.3981919  31.5055701  34.9959937  21.6121919  31.6665701
  34.6199937  22.0711919  30.4865701  34.0978694  23.0242158  30.4015370
  34.9879937  21.2001919  29.5655701  34.8340832  21.2865553  28.5711091
  35.6209937  20.1441919  30.1765701  36.0004337  19.3159886  29.5780671
  38.0009937  19.4631919  34.3825701  37.1589937  18.8841919  35.0755701
  39.2469937  19.6931919  34.7915701  39.9060253  20.1350841  34.1666637
  39.7219937  19.2581919  36.1075701  38.9698170  18.6319072  36.5872542
  41.0159937  18.4441919  35.9585701  41.7486264  19.0859908  35.4692412
  41.3621408  18.1982715  36.9624652  40.8449937  17.1611919  35.1515701
  40.0442419  16.5818317  35.6111776  40.5555518  17.4400649  34.1383795
  42.1149937  16.3221919  35.1035701  42.4726356  16.1815102  36.1235701
  41.8705397  15.3533904  34.6679494  43.1979937  16.9901919  34.2755701
  42.7699101  17.2312352  33.3025629  43.4836570  17.9108367  34.7844009
  44.4069937  16.1281919  34.0885701  44.1425835  15.2752367  33.6167074
  45.0902152  16.6225502  33.5327659  44.8040667  15.9050738  34.9900414
  39.9519937  20.4101919  37.0905701  40.5509937  20.2181919  38.1505701
  39.4719937  21.5991919  36.7425701  39.0015103  21.7221844  35.8573484
  39.6309937  22.7631919  37.6095701  40.4912134  22.6237136  38.2642969
  39.8549937  24.0251919  36.7685701  38.9248774  24.1416549  36.2123154
  39.9728340  24.8615389  37.4575819  41.0349937  23.9991919  35.7905701
  40.9134050  23.1682004  35.0957535  41.0789937  25.3041919  35.0155701
  41.2010404  26.1356673  35.7097258  41.9179771  25.2861525  34.3199536
  40.1495931  25.4288879  34.4599032  42.3399937  23.7691919  36.5535701
  42.2900711  22.8165876  37.0809716  43.1737053  23.7520187  35.8516218
  42.4877913  24.5747813  37.2727923  38.3989937  22.9591919  38.4945701
  37.2659937  22.7681919  38.0555701  38.6189937  23.3381919  39.7475701
  39.5547512  23.4844345  40.0983839  37.4989937  23.5681919  40.6505701
  36.8256927  22.7113594  40.6260125  37.9919937  23.7621919  42.0875701
  38.5490798  24.6989212  42.1046766  37.1048883  23.8561483  42.7139215
  38.8669937  22.6451919  42.6165701  38.3283062  21.7068102  42.4848267
  39.7870566  22.6204362  42.0326433  39.2039937  22.8321919  44.0815701
  39.5179937  23.9731919  44.4815701  39.1619937  21.8371919  44.8315701
  36.7739937  24.8311919  40.2035701  37.3649937  25.7041919  39.5675701
  35.4929937  24.9281919  40.5385701  35.0312939  24.1761228  41.0298182
  34.7149937  26.1041919  40.1925701  35.0568895  26.5089140  39.2399912
  33.2289937  25.7391919  40.0655701  33.1706969  24.8728655  39.4066473
  32.8533319  25.4700991  41.0527719  32.3909937  26.8621919  39.4965701
  32.5629937  27.2831919  38.1785701  33.3033113  26.7780501  37.5581983
  31.8069937  28.3321919  37.6495701  31.9581643  28.6579922  36.6204426
  30.8669937  28.9681919  38.4475701  30.1079937  29.9951919  37.9255701
  30.3133238  30.1839250  37.0069739  30.6809937  28.5681919  39.7585701
  29.9434434  29.0696589  40.3851887  31.4409937  27.5191919  40.2785701
  31.2967788  27.2013815  41.3111875  34.9019937  27.1701919  41.2795701
  34.0489937  27.3571919  42.1445701  36.0359937  27.8581919  41.2425701
  36.7360380  27.6479847  40.5455405  36.3259937  28.8991919  42.2215701
  35.4496289  29.5353132  42.3458022  36.6889937  28.2931919  43.5835701
  36.9832716  29.0914533  44.2649500  35.8037219  27.7910631  43.9737757
  37.8209937  27.2851919  43.4995701  38.6619937  27.3481919  42.6075701
  37.8529937  26.3551919  44.4485701  38.5836559  25.6579058  44.4435970
  37.1465018  26.3500398  45.1703342  37.4579937  29.7751919  41.7325701
  37.9799937  29.5651919  40.6345701  37.8449937  30.7541919  42.5455701
  37.3970593  30.9021855  43.4386278  38.9079937  31.6631919  42.1485701
  39.6367572  31.1468858  41.5237253  38.3059937  32.8231919  41.3435701
  37.3270779  32.4715550  41.0177257  38.1825147  33.6900679  41.9927072
  39.1269937  33.2101919  40.1395701  39.0039937  32.5171919  38.9345701
  38.2712413  31.7138058  38.8587797  39.7989937  32.8381919  37.8405701
  39.6942018  32.2976076  36.8998847  40.7279937  33.8601919  37.9525701
  41.5309937  34.1871919  36.8885701  41.3666298  33.6445597  36.1138866
  40.8609937  34.5571919  39.1345701  41.5908188  35.3624572  39.2182578
  40.0639937  34.2311919  40.2165701  40.1650495  34.7800047  41.1528886
  39.6659937  32.2141919  43.3565701  39.0979937  32.3501919  44.4425701
  40.9449937  32.5291919  43.1595701  41.3664697  32.3556085  42.2582787
  41.7839937  33.0861919  44.2225701  41.2613893  33.0308078  45.1775133
  43.0899937  32.2931919  44.3325701  43.6413001  32.3755659  43.3958871
  43.6849646  32.7159442  45.1421318  42.8479937  30.8261919  44.6245701
  42.2419937  30.4791919  45.6405701  43.3109937  29.9561919  43.7315701
  43.1760925  28.9661096  43.8786704  43.7953861  30.2895616  42.9103945
  42.0919937  34.5611919  43.9615701  41.6429937  35.1311919  42.9585701
  42.8429937  35.1891919  44.8635701  43.1634778  34.7265043  45.7022056
  43.1829937  36.5951919  44.6765701  42.4680504  37.0552277  43.9944247
  43.1459937  37.3541919  46.0115701  43.2883233  38.4156729  45.8088396
  42.1686831  37.2000277  46.4689510  44.1539937  36.9041919  46.8925701
  44.1036715  37.3970508  47.7148581  44.5619937  36.7151919  44.0435701
  45.4739937  35.9461919  44.3555701  44.7079937  37.6731919  43.1395701
  43.9369567  38.2828370  42.9073329  45.9829937  37.8841919  42.4655701
  46.7857674  37.4521956  43.0630924  45.9929937  37.2221919  41.0765701
  45.3412957  37.7681896  40.3944591  47.0097095  37.2205595  40.6836497
  45.5269937  35.7971919  41.0665701  44.2099937  35.4441919  40.8605701
  43.4594218  36.0994636  40.6951599  44.0949937  34.1291919  40.9145701
  43.1251473  33.6514968  40.7756303  45.2899937  33.6141919  41.1475701
  46.2029937  34.6361919  41.2465701  47.2525039  34.4127632  41.4381668
  46.2119937  39.3721919  42.2845701  45.2769937  40.1761919  42.3705701
  47.4609937  39.7321919  42.0205701  48.1931252  39.0372728  41.9863593
  47.8189937  41.1211919  41.7935701  46.9642429  41.7606314  42.0140635
  48.9879937  41.5371919  42.6955701  49.8529332  40.9267615  42.4360444
  49.2209746  42.5880929  42.5240268  48.6809937  41.3421919  44.1725701
  47.6079937  41.7171919  44.6495701  49.6309937  40.7661919  44.9065701
  49.4791854  40.6127760  45.8932401  50.4990294  40.4853465  44.4732794
  48.2039937  41.2801919  40.3285701  48.9679937  40.4771919  39.7855701
  47.6539937  42.3111919  39.6935701  47.0195464  42.9194207  40.1911982
  47.9319937  42.6001919  38.2925701  48.3209078  41.7223645  37.7765622
  46.6539937  43.0751919  37.5645701  46.2704584  43.9652471  38.0633703
  46.9619937  43.4011919  36.1155701  47.3451676  42.5114358  35.6159574
  46.0521398  43.7342284  35.6162176  47.7103233  44.1925121  36.0717884
  45.5749937  41.9911919  37.6555701  45.3427930  41.7959239  38.7024967
  44.6753349  42.3292468  37.1413401  45.9381573  41.0761423  37.1877055
  48.9879937  43.6961919  38.2475701  48.6969937  44.8691919  38.5025701
  50.2169937  43.3051919  37.9305701  50.4120365  42.3237064  37.7936617
  51.3279937  44.2431919  37.8775701  51.2269542  44.9948194  38.6604790
  52.6429937  43.4871919  38.0915701  52.6481858  42.6789243  37.3602865
  53.5068361  44.1311654  37.9267228  52.7069937  42.9071919  39.4815701
  52.4159937  41.5641919  39.7185701  52.1939704  40.9153146  38.8713609
  52.4059937  41.0461919  41.0175701  52.1797138  39.9947331  41.1945831
  52.6899937  41.8851919  42.0875701  52.6819937  41.3971919  43.3745701
  52.4674938  40.4625669  43.4200178  52.9819937  43.2191919  41.8745701
  53.2038133  43.8747688  42.7166601  52.9919937  43.7241919  40.5785701
  53.2250942  44.7746970  40.4047790  51.3399937  45.0491919  36.5935701
  51.4199937  44.5021919  35.4925701  51.2639937  46.3641919  36.7615701
  51.2224771  46.7331668  37.7008428  51.1939937  47.3001919  35.6485701
  51.2055663  46.7949821  34.6827915  49.9099937  48.1521919  35.7685701
  49.8886006  48.6283949  36.7488116  49.8819937  49.2271919  34.6785701
  49.9028972  48.7517054  33.6979702  48.9722076  49.8196938  34.7751693
  50.7509160  49.8765250  34.7855269  48.6809937  47.2371919  35.6995701
  48.6369726  46.8339493  34.6878595  48.8452367  46.4245594  36.4072086
  47.3809937  47.9281919  36.0215701  47.2158251  48.7407102  35.3140157
  46.5614749  47.2130380  35.9505562  47.4240903  48.3313225  37.0333647
  52.3669937  48.2571919  35.5035701  52.9139937  48.7491919  36.4925701
  52.7359937  48.5211919  34.2525701  52.2642497  48.0568671  33.4897075
  53.8049937  49.4571919  33.9355701  53.9236915  50.1592186  34.7608995
  55.1609937  48.7481919  33.6895701  55.4125906  48.1577893  34.5706059
  55.0849937  47.8251919  32.4575701  54.8338770  48.4149966  31.5759974
  56.0491342  47.3396374  32.3066759  54.3181435  47.0672619  32.6175186
  56.1769937  49.7401919  33.4795701  57.0200755  49.3073187  33.3264874
  53.4049937  50.2161919  32.6705701  52.7239937  49.6741919  31.8025701
  53.8139937  51.4741919  32.5715701  54.3390200  51.9123877  33.3148272
  53.4739937  52.2741919  31.4005701  52.4027139  52.2034956  31.2122598
  53.8319937  53.7441919  31.6475701  54.9032194  53.8323159  31.8287047
  53.5619600  54.3363192  30.7731747  53.2857124  54.1106363  32.5167045
  54.1959937  51.7621919  30.1565701  55.2859937  51.2051919  30.2505701
  53.5689937  51.9381919  28.9965701  52.6677442  52.3940720  28.9918943
  54.1469937  51.5321919  27.7165701  55.1816307  51.2235106  27.8660404
  53.3699937  50.3611919  27.1075701  53.4448834  49.5238068  27.8013114
  52.3251397  50.6535938  27.0032577  53.9169937  49.9461919  25.7525701
  54.5669937  50.7851919  25.0925701  53.6889937  48.7901919  25.3365701
  54.0079937  52.7591919  26.8205701  53.1429937  52.8141919  25.9355701
  54.8619937  53.7441919  27.0715701  55.4888758  53.6539359  27.8583179
  54.8429937  55.0021919  26.3475701  53.8894246  55.5112062  26.4879603
  55.9609937  55.9001919  26.8855701  56.9162594  55.3990631  26.7292476
  55.9495581  56.8398338  26.3332637  55.7729937  56.1821919  28.3705701
  54.7677057  56.5850426  28.4938912  55.8467444  55.2259869  28.8885807
  56.7819937  57.1531919  28.9555701  57.7779721  56.7122392  28.9144994
  56.7713653  58.0795295  28.3812138  56.4169937  57.4511919  30.4085701
  55.4716802  57.9937863  30.3999530  56.2810500  56.4934807  30.9109722
  57.4439937  58.2531919  31.1365701  57.5698007  59.1408446  30.6714411
  57.1371661  58.4109871  32.0858106  58.3199072  57.7503967  31.1450401
  54.8999937  54.9051919  24.8255701  54.3219937  55.7391919  24.1345701
  55.5749937  53.8891919  24.3015701  56.0441278  53.2204589  24.8955472
  55.6739937  53.7191919  22.8555701  56.1675772  54.5852522  22.4146460
  56.4899937  52.4651919  22.5175701  55.9035412  51.6123493  22.8593773
  56.5756966  52.4346324  21.4313744  57.8899937  52.4061919  23.1425701
  57.8045418  52.6656490  24.1977861  58.2640324  51.3866834  23.0487639
  58.8879937  53.3531919  22.4875701  58.7489937  54.5761919  22.5585701
  59.9019937  52.7851919  21.8445701  60.5952472  53.3627373  21.3907615
  59.9751174  51.7783554  21.8124042  54.2689937  53.5941919  22.2515701
  53.9839937  54.1691919  21.1995701  53.3979937  52.8441919  22.9265701
  53.6969210  52.3776767  23.7710258  52.0239937  52.6351919  22.4675701
  51.9382894  52.9209684  21.4191972  51.6269937  51.1601919  22.6075701
  52.0952824  50.7978673  23.5227345  50.5431984  51.1395996  22.7218668
  52.0309937  50.2671919  21.4435701  51.5731746  49.2893959  21.5932951
  51.6446211  50.7121328  20.5265936  53.5349937  50.1091919  21.3335701
  53.7588776  49.5395811  20.4316175  53.9832050  51.0998688  21.2576399
  54.1049937  49.3871919  22.5425701  55.1772730  49.2631225  22.3911613
  53.9321282  50.0069518  23.4224078  53.4729937  48.0491919  22.7445701
  53.6334286  47.4746043  21.9295796  53.8787152  47.6041994  23.5554164
  52.4794561  48.1639679  22.8853131  51.0149937  53.4901919  23.2315701
  49.8069937  53.2541919  23.1545701  51.5139937  54.4711919  23.9735701
  52.5147206  54.5905966  24.0398085  50.6599937  55.3591919  24.7495701
  51.2576919  55.9322458  25.4584180  49.9429937  56.3371919  23.8095701
  50.6624668  56.7242675  23.0880230  49.1557126  55.7975807  23.2831593
  49.3189937  57.5071919  24.5475701  49.9799937  58.1881919  25.3285701
  48.0389937  57.7481919  24.2985701  47.5731199  58.5149579  24.7623926
  47.5358614  57.1638720  23.6462443  49.6439937  54.5671919  25.5775701
  48.4999937  54.9971919  25.7605701  50.0749937  53.4081919  26.0745701
  51.0181251  53.0922211  25.8991703  49.2049937  52.5671919  26.8805701
  48.3667072  53.1699436  27.2299485  48.8325619  51.7549452  26.2563512
  49.9249937  51.9771919  28.0825701  50.7399937  52.6531919  28.7115701
  49.6229937  50.7231919  28.4075701  48.9482601  50.2136448  27.8551250
  50.2539937  50.0401919  29.5305701  51.2395062  50.4615502  29.7288667
  49.3929937  50.0941919  30.8335701  49.9073632  49.5387881  31.6178221
  49.1819937  51.5401919  31.2875701  48.6672281  52.0961457  30.5039679
  48.5799999  51.5521159  32.1961745  50.1482395  52.0037944  31.4864196
  48.0589937  49.3801919  30.5955701  47.4159430  50.0805298  30.0625472
  48.2688705  48.5221659  29.9569445  47.3659937  48.9161919  31.8455701
  47.1553599  49.7737816  32.4845326  46.4309375  48.4223245  31.5812519
  48.0082889  48.2154191  32.3789313  50.4559937  48.5661919  29.2095701
  49.9019937  48.0381919  28.2435701  51.2579937  47.9111919  30.0415701
  51.6886467  48.4151878  30.8035579  51.5239937  46.4871919  29.9195701
  50.8544891  46.0544802  29.1761837  52.9709937  46.2311919  29.4835701
  53.5961824  46.8806364  30.0963181  53.1848033  45.1897274  29.7238556
  53.2709937  46.4861919  27.9945701  52.7349629  45.7553871  27.3890158
  52.9413102  47.4902791  27.7277000  54.7689937  46.3581919  27.7375701
  55.2716749  47.1142512  28.3407160  55.0757934  45.3663335  28.0695195
  55.1499937  46.5441919  26.2635701  54.6625630  47.4509079  25.9052715
  56.2315846  46.6691726  26.2121878  54.7429937  45.3931919  25.4125701
  53.7407520  45.2774781  25.4597027  55.0171354  45.5679915  24.4563319
  55.1948837  44.5529829  25.7441472  51.2979937  45.9101919  31.3175701
  51.5119937  46.5951919  32.3165701  50.8439937  44.6651919  31.3825701
  50.6349686  44.1541725  30.5368355  50.6079937  44.0131919  32.6555701
  51.1827456  44.4988200  33.4441922  49.1239937  44.0761919  33.0225701
  48.5361551  43.5857969  32.2466458  48.9627503  43.5699838  33.9743338
  48.8143459  45.1177405  33.1085585  51.0599937  42.5681919  32.5805701
  51.1299937  41.9821919  31.5015701  51.3779937  42.0041919  33.7405701
  51.3278865  42.5540353  34.5863010  51.8059937  40.6191919  33.8435701
  51.3247585  40.0286927  33.0639404  53.3239937  40.5031919  33.6785701
  53.5862060  40.7855294  32.6589479  53.8071528  41.1841591  34.3792419
  53.8369937  39.0881919  33.9405701  54.7669937  38.8921919  34.7235701
  53.2339937  38.1001919  33.2845701  53.5369957  37.1468396  33.4238863
  52.4759968  38.3080489  32.6502697  51.3969937  40.0941919  35.2145701
  51.5289937  40.7831919  36.2295701  50.8879937  38.8731919  35.2285701
  50.7506784  38.3818933  34.3568652  50.4609937  38.2281919  36.4565701
  51.2407213  38.3186136  37.2128426  49.1749937  38.8911919  36.9925701
  48.7709165  38.3625199  37.8558932  49.4306858  39.9113600  37.2788893
  48.0539937  38.9931919  35.9845701  47.0539937  38.0281919  35.9365701
  47.1209350  37.1660753  36.6001767  45.9759937  38.1501919  35.0565701
  45.2001529  37.3848339  35.0365998  45.8919937  39.2521919  34.2025701
  45.0544299  39.3565488  33.5128626  46.8919937  40.2241919  34.2375701
  46.8388713  41.0885733  33.5756616  47.9679937  40.0871919  35.1275701
  48.7523105  40.8436285  35.1549728  50.2539937  36.7441919  36.1865701
  50.1299937  36.3221919  35.0335701  50.2389937  35.9491919  37.2455701
  50.3672557  36.3219471  38.1754635  50.0629937  34.5131919  37.0965701
  49.8785068  34.2646816  36.0514355  51.3259937  33.7841919  37.5565701
  52.1768858  34.3593909  37.1915659  51.3213300  33.7951990  38.6465046
  51.4359937  32.3511919  37.0655701  50.5485016  31.8058547  37.3866090
  51.4818640  32.3606317  35.9765757  52.6809937  31.6671919  37.6205701
  52.6233079  31.6807120  38.7089581  52.6900121  30.6349699  37.2705189
  53.9569937  32.3661919  37.1715701  53.9258043  32.4626830  36.0862972
  53.9763588  33.3578637  37.6235781  55.1829937  31.6151919  37.5685701
  55.1654536  30.6964110  37.1494833  56.0013647  32.1146087  37.2508411
  55.2123054  31.5260419  38.5742003  48.8669937  34.0511919  37.9165701
  48.8199937  34.2351919  39.1315701  47.8939937  33.4561919  37.2405701
  47.9653686  33.3443848  36.2393188  46.6989937  32.9691919  37.9035701
  46.4592972  33.5817539  38.7727148  45.4929937  32.9561919  36.9335701
  45.7382333  32.3452981  36.0647970  44.2609937  32.3751919  37.6345701
  44.0148471  32.9858644  38.5032424  43.4178253  32.3703254  36.9438140
  44.4724629  31.3554026  37.9561439  45.2189937  34.3751919  36.4205701
  46.1024263  34.6808463  35.8600141  44.3669867  34.3039721  35.7444701
  44.9229937  35.4061919  37.5035701  45.7747955  35.4783106  38.1798337
  44.7428621  36.3771308  37.0421273  44.0393566  35.1014348  38.0642915
  46.9199937  31.5581919  38.4345701  47.5979937  30.7341919  37.8145701
  46.3489937  31.2911919  39.5995701  45.8263233  32.0022696  40.0907762
  46.4669937  29.9861919  40.2065701  47.1593292  29.3681456  39.6349149
  46.9989937  30.1231919  41.6355701  46.2098594  30.5825195  42.2308720
  47.1930880  29.1163841  42.0053882  48.2799937  30.9651919  41.7465701
  49.0456922  30.5162639  41.1139009  48.0634892  31.9736349  41.3940499
  48.7849937  31.0271919  43.1945701  48.9639567  30.0105456  43.5445723
  49.7199164  31.5872490  43.2134157  47.8319937  31.6741919  44.0995701
  47.2802627  31.0704108  44.6921413  47.6479937  32.9921919  44.1865701
  48.3549937  33.8151919  43.4205701  49.0322751  33.4398427  42.7721081
  48.2121105  34.8126175  43.4900407  46.7579937  33.4911919  45.0425701
  46.2204904  32.8679397  45.6280161  46.6246558  34.4905656  45.1023353
  45.0739937  29.3621919  40.1985701  44.1749937  29.8131919  40.9145701
  44.8939937  28.3511919  39.3515701  45.6629482  28.0385056  38.7762131
  43.6189937  27.6481919  39.2445701  42.8134826  28.2937728  39.5945363
  43.3349937  27.2551919  37.7875701  44.1556923  26.6780045  37.3616500
  42.4237562  26.6573185  37.7704339  43.1039937  28.4151919  36.8675701
  42.0389937  29.2781919  37.0075701  42.0699937  30.1731919  36.0365701
  41.3065903  30.9485766  35.9725962  43.1169937  29.9221919  35.2705701
  43.3917878  30.4423859  34.4496034  43.7829937  28.8291919  35.7705701
  44.6833132  28.4659220  35.2750290  43.7109937  26.3751919  40.0755701
  44.4799937  25.4781919  39.7435701  42.9399937  26.2881919  41.1535701
  42.3342701  27.0464621  41.4332565  42.9719937  25.0851919  41.9825701
  43.9991604  24.8753978  42.2809229  42.1239937  25.2641919  43.2425701
  41.1132150  25.5381376  42.9402798  42.0960082  24.3227615  43.7912282
  42.6639937  26.3421919  44.1585701  43.8049937  26.7801919  44.0175701
  41.8489937  26.7701919  45.1115701  42.1578361  27.4884079  45.7510088
  40.9226629  26.3762521  45.1941742  42.4479937  23.9021919  41.1745701
  41.4809937  24.0321919  40.4245701  43.1009937  22.7561919  41.3305701
  43.8987598  22.7262548  41.9492562  42.7299937  21.5391919  40.6235701
  42.0969371  21.7833387  39.7704987  43.9929937  20.7821919  40.1305701
  44.6746604  20.6411084  40.9693349  43.6039937  19.4241919  39.5585701
  42.9226516  19.5644881  38.7194095  44.4985229  18.9036921  39.2165200
  43.1121931  18.8317597  40.3300981  44.7149937  21.6111919  39.0635701
  44.0442487  21.6776610  38.2069583  44.8662159  22.6054219  39.4839724
  46.0619937  21.0371919  38.6135701  45.9115057  20.0430902  38.1926009
  46.5008719  21.6886035  37.8578267  46.7334725  20.9708490  39.4696161
  41.9139937  20.6181919  41.5285701  42.1929937  20.4921919  42.7255701
  40.9009937  19.9841919  40.9475701  40.7067461  20.1329857  39.9676581
  40.0449937  19.0711919  41.6895701  39.4781950  19.6199316  42.4417158
  39.0619937  18.3851919  40.7415701  39.6414452  17.7100299  40.1118944
  38.3735822  17.8060850  41.3570576  38.2759937  19.3401919  39.8675701
  38.7408259  20.3229193  39.9468082  38.3461001  18.9875825  38.8385653
  36.8219937  19.4371919  40.2685701  36.5429937  19.8471919  41.4185701
  35.9579937  19.1001919  39.4295701  40.9079937  18.0171919  42.3755701
  41.7569937  17.3821919  41.7405701  40.6839937  17.8451919  43.6745701
  40.0251059  18.4513426  44.1420608  41.4199937  16.8771919  44.4755701
  40.9331707  16.7525564  45.4428180  41.4629937  15.5181919  43.7705701
  41.6737901  15.6969774  42.7161983  42.2737631  14.9364248  44.2090903
  40.1609937  14.7501919  43.9025701  39.1209937  15.2211919  43.3975701
  40.1819937  13.6671919  44.5205701  42.8359937  17.3081919  44.8445701
  43.5889937  16.5261919  45.4205701  43.2059937  18.5411919  44.5135701
  42.5939185  19.1712340  44.0150621  44.5319937  19.0111919  44.8745701
  44.3705199  19.8323566  45.5729353  45.0046922  18.1789639  45.3961562
  45.4499937  19.4821919  43.7625701  45.3869937  19.0091919  42.6265701
  46.3199937  20.4251919  44.1075701  46.3423652  20.7889879  45.0495103
  47.2609937  20.9581919  43.1425701  48.2164426  21.1028655  43.6468382
  47.3790482  20.2245286  42.3451363  46.8179937  22.2741919  42.5395701
  45.7179937  22.7651919  42.8025701  47.6879937  22.8451919  41.7195701
  48.5792060  22.4038436  41.5433551  47.4059937  24.1081919  41.0675701
  46.3355702  24.3137248  41.0745615  48.1379937  25.2781919  41.7625701
  49.2061373  25.0641593  41.7994305  47.9049937  26.5701919  40.9845701
  46.8370352  26.7851437  40.9476763  48.4234971  27.3914218  41.4793793
  48.2877886  26.4581484  39.9701658  47.6449937  25.4271919  43.1895701
  47.8395002  24.5065383  43.7397213  48.1671344  26.2543929  43.6704103
  46.5736301  25.6278472  43.1853065  47.8299937  24.0971919  39.6095701
  48.8929937  23.5911919  39.2625701  46.9739937  24.6671919  38.7695701
  46.1270163  25.0662589  39.1483500  47.2189937  24.7981919  37.3465701
  48.0444317  24.1502958  37.0516430  45.9739937  24.3961919  36.5525701
  45.8937976  23.3109026  36.6143360  45.1181287  24.8521488  37.0502631
  45.9959937  24.8221919  35.0855701  45.0274164  24.5910250  34.6422636
  46.1703607  25.8970225  35.0361995  47.0779937  24.1171919  34.2835701
  47.0259937  22.9011919  34.0835701  48.0659937  24.8791919  33.8215701
  48.8113249  24.4622925  33.2823320  48.0661283  25.8710360  34.0122178
  47.4799937  26.2891919  37.1735701  46.5809937  27.1071919  37.3785701
  48.7089937  26.6441919  36.8185701  49.4328454  25.9528822  36.6835555
  49.0549937  28.0471919  36.6495701  48.4602976  28.6568618  37.3298188
  50.5369937  28.2791919  36.9535701  51.0368928  27.6129138  36.2505241
  50.7437158  29.3143838  36.6820121  51.0569937  28.0091919  38.3715701
  52.1379611  28.1480373  38.3898029  50.4049937  28.9701919  39.3585701
  49.3239794  28.8316048  39.3412382  50.7802797  28.7709212  40.3623392
  50.6437547  29.9963254  39.0790283  50.7759937  26.5681919  38.7575701
  51.2767971  25.8996549  38.0573175  51.1474438  26.3824081  39.7653451
  49.7016862  26.3863561  38.7276017  48.7539937  28.5221919  35.2405701
  48.7649937  27.7321919  34.2965701  48.4819937  29.8201919  35.1215701
  48.4683101  30.3873863  35.9571553  48.1869937  30.4611919  33.8465701
  48.5554810  29.8808189  33.0007075  46.6809937  30.6511919  33.6885701
  46.2987692  31.2384466  34.5235170  46.4762079  31.1733256  32.7539368
  46.1908574  29.6776991  33.6752500  48.9039937  31.8161919  33.8195701
  48.4579937  32.7851919  34.4425701  50.0189937  31.8671919  33.0945701
  50.3178043  31.0305029  32.6141920  50.8419937  33.0711919  32.9685701
  50.9471367  33.5630077  33.9356075  52.2339937  32.6801919  32.4645701
  52.3697306  31.6191080  32.6737966  52.2674822  32.8448173  31.3875942
  53.3389937  33.4701919  33.1295701  53.1919937  34.7071919  33.2915701
  54.3659937  32.8441919  33.4805701  50.2069937  34.0641919  31.9915701
  50.0299937  33.7581919  30.8085701  49.8839937  35.2531919  32.4885701
  50.0612145  35.4457074  33.4640853  49.2459937  36.2911919  31.6825701
  48.8756231  35.8609776  30.7520646  48.0609937  36.9111919  32.4435701
  48.3771120  37.1774894  33.4521603  47.7057868  37.8030539  31.9273238
  46.8809937  36.0031919  32.5905701  46.9619937  34.7641919  33.1865701
  45.7669937  34.1981919  33.1805701  45.6205384  33.2071626  33.6101172
  44.9159937  35.0261919  32.6015701  43.9305595  34.8599707  32.4553174
  45.5869937  36.1621919  32.2245701  45.0521374  36.9714362  31.7274247
  50.1719937  37.4271919  31.2695701  50.8109937  38.0481919  32.1175701
  50.2169937  37.6951919  29.9655701  49.6803687  37.1104507  29.3409016
  51.0059937  38.7811919  29.3905701  51.5439385  39.2984805  30.1850052
  52.0229937  38.2511919  28.3755701  51.4356434  37.5893124  27.7391470
  52.4741133  39.0342980  27.7661966  53.1099937  37.4571919  29.0595701
  52.9149937  36.1181919  29.3895701  52.0058617  35.6202962  29.0524081
  53.8569937  35.4161919  30.1365701  53.7042737  34.3611196  30.3637283
  55.0129937  36.0581919  30.5625701  55.9219937  35.3791919  31.3395701
  55.6564793  34.4752971  31.5241667  55.2379937  37.3881919  30.2385701
  56.1469893  37.8931627  30.5654217  54.2869937  38.0801919  29.4865701
  54.4554422  39.1242364  29.2225698  49.9859937  39.6891919  28.7295701
  49.3009937  39.2941919  27.7855701  49.9009937  40.9141919  29.2355701
  50.5015233  41.1795708  30.0030580  48.9049937  41.8681919  28.7785701
  48.3245232  41.4658058  27.9483662  47.9569937  42.1441919  29.9505701
  47.5135106  41.1817244  30.2056746  48.5907292  42.4805643  30.7711389
  46.8599937  43.1571919  29.7135701  47.3027544  44.1007218  29.3944852
  46.1895431  42.7899103  28.9365873  46.0499937  43.4031919  30.9785701
  45.8019937  42.4771919  31.7545701  45.6349937  44.6481919  31.1905701
  45.0939018  44.8632557  32.0158389  45.8626919  45.3733138  30.5253986
  49.4139937  43.1851919  28.2075701  50.4179937  43.7441919  28.6615701
  48.6699937  43.6771919  27.2205701  47.8459278  43.1625469  26.9446077
  48.9609937  44.9321919  26.5395701  49.6552821  45.5241806  27.1359024
  49.5949937  44.6641919  25.1745701  50.5952880  44.2706890  25.3553080
  48.9895308  43.9036360  24.6815493  49.6879937  45.9001919  24.2795701
  49.7299898  45.5761291  23.2397045  48.7989086  46.5117214  24.4333927
  50.9109937  46.7421919  24.5735701  52.0419937  46.2901919  24.3855701
  50.6959937  47.9721919  25.0375701  51.4798147  48.5730751  25.2489123
  49.7501429  48.2982739  25.1759102  47.6529937  45.6791919  26.3165701
  46.6979937  45.1141919  25.7895701  47.6109937  46.9441919  26.7145701
  48.4152868  47.3600887  27.1620540  46.4219937  47.7681919  26.5245701
  45.6748139  47.2048118  25.9656208  45.8159937  48.1841919  27.8715701
  46.5913640  48.6576587  28.4738403  45.0136114  48.8983586  27.6865062
  45.2499937  47.0091919  28.6465701  45.9679937  46.0651919  28.9675701
  43.9569937  47.0631919  28.9525701  43.5310732  46.3060741  29.4678023
  43.4068156  47.8610759  28.6683413  46.8389937  49.0061919  25.7495701
  47.7759937  49.7041919  26.1375701  46.1399937  49.2701919  24.6515701
  45.3850568  48.6542447  24.3855277  46.4269937  50.4181919  23.8015701
  47.1723672  51.0545692  24.2785833  46.9739937  49.9571919  22.4365701
  46.2414660  49.2980560  21.9706911  47.2399937  51.1541919  21.5185701
  47.9728244  51.8135883  21.9836026  47.6253086  50.8007033  20.5621824
  46.3114023  51.7012822  21.3557492  48.1999937  49.2451919  22.6405701
  48.5462713  48.9550360  21.7935154  45.1519937  51.2201919  23.5885701
  44.1029937  50.6581919  23.2975701  45.2249937  52.5501919  23.7385701
  46.4169937  53.3701919  23.9975701  46.9336758  53.5927938  23.0639811
  47.0957901  52.8489014  24.6725447  45.8139937  54.5841919  24.6225701
  46.4943666  55.4332793  24.5574372  45.5636923  54.3991306  25.6671767
  44.5849937  54.8091919  23.8135701  44.8876896  55.2694812  22.8730341
  43.8157344  55.4203776  24.2855783  44.0459937  53.4001919  23.5535701
  43.2750639  53.0947693  24.2610180  43.5099937  53.2721919  22.1325701
  44.2789937  53.0831919  21.1875701  42.1939937  53.3621919  21.9825701
  41.5841681  53.4846939  22.7783121  41.5939937  53.2861919  20.6585701
  42.1494066  52.5760137  20.0459832  40.1079937  52.8561919  20.7275701
  39.5872160  53.4813469  21.4528785  39.4539937  53.0131919  19.3595701
  39.9739739  52.3879359  18.6337766  38.4091850  52.7082511  19.4186169
  39.5105239  54.0558085  19.0467536  40.0159937  51.3991919  21.1985701
  40.5960039  50.8033960  20.4937891  40.4845882  51.3560963  22.1817596
  38.6009937  50.8451919  21.2865701  38.1318856  50.8875338  20.3035927
  38.6359008  49.8105243  21.6276620  38.0204690  51.4402360  21.9915619
  41.7059937  54.6831919  20.0585701  41.9789937  54.8411919  18.8715701
  41.5099937  55.6931919  20.8995701  41.2855019  55.5275460  21.8702730
  41.6139937  57.0651919  20.4425701  41.2048179  57.1349460  19.4346968
  41.0404630  57.7061482  21.1121496  43.0569937  57.5361919  20.4235701
  43.9679937  56.8161919  20.8485701  43.2689937  58.7501919  19.9265701
  42.4947362  59.2882681  19.5644947  44.6059937  59.3241919  19.8475701
  45.3498399  58.5742466  20.1165944  44.8889937  59.8041919  18.4245701
  44.0259143  60.3712484  18.0758008  45.7607809  60.4573432  18.4630474
  45.1579937  58.6611919  17.4735701  46.1729937  57.9541919  17.6725701
  44.3569937  58.4621919  16.5355701  44.7639937  60.4771919  20.8195701
  45.7099937  61.2611919  20.7265701  43.8279937  60.5761919  21.7525701
  43.0586036  59.9233096  21.7959617  43.8879937  61.6331919  22.7405701
  44.1577991  62.5665250  22.2464107  42.9085907  61.7395541  23.2069992
  44.9149937  61.3281919  23.8135701  45.5679937  60.2801919  23.7795701
  45.0959937  62.2381919  24.7775701  44.5049937  63.5851919  24.8705701
  43.4204986  63.5207796  24.7821298  44.8970596  64.2174752  24.0739516
  44.9509937  64.0441919  26.2455701  44.2725566  63.6835327  27.0187111
  45.0121991  65.1313536  26.2949131  46.3099937  63.4251919  26.3775701
  46.5724540  63.3845308  27.4347173  47.1201502  63.8956665  25.8204348
  46.0659937  62.0181919  25.8505701  46.9631627  61.5622091  25.4319225
  45.4779937  61.0971919  26.9165701  44.2679937  61.1061919  27.1525701
  46.3349937  60.3031919  27.5495701  47.3160932  60.3176046  27.3101218
  45.8929937  59.3901919  28.5915701  44.8661643  59.6043631  28.8879672
  45.9759937  57.9161919  28.1245701  45.5740421  57.2699080  28.9048593
  45.1729937  57.7271919  26.8465701  45.5746753  58.3728573  26.0656290
  45.2378595  56.6872533  26.5265379  44.1302147  57.9858414  27.0304555
  47.4279937  57.5151919  27.9035701  47.9818221  57.6253082  28.8359062
  47.4727684  56.4767150  27.5754533  47.8704128  58.1560564  27.1409044
  46.7629937  59.5541919  29.8325701  47.7189937  60.3251919  29.8385701
  46.4119937  58.8301919  30.8875701  45.5903295  58.2437757  30.8546566
  47.1809937  58.8691919  32.1185701  47.7441968  59.8008239  32.1730066
  46.2509937  58.7871919  33.3345701  45.5422697  58.0063232  33.0587920
  46.8796960  58.4343064  34.1520695  45.4829937  60.0401919  33.7835701
  44.7266765  59.7565904  34.5154549  46.4399937  61.0331919  34.4065701
  47.1963843  61.3176368  33.6750899  45.8898496  61.9193914  34.7229444
  46.9240446  60.5788102  35.2710540  44.7759937  60.6801919  32.6045701
  44.0716235  59.9690824  32.1729623  44.2371527  61.5660964  32.9406131
  45.5102873  60.9660855  31.8514587  48.1499937  57.6871919  32.1135701
  47.7449937  56.5391919  32.3095701  49.4229937  57.9751919  31.8535701
  49.6838414  58.9319769  31.6622058  50.4719937  56.9541919  31.8415701
  50.0770520  56.0173016  31.4486874  51.6339937  57.4071919  30.9515701
  51.9963010  58.3377569  31.3884700  52.4195653  56.6531766  31.0009505
  51.2469937  57.6471919  29.4855701  50.4261178  58.3631326  29.4444311
  52.4329937  58.1941919  28.7165701  53.2541686  57.4785477  28.7568705
  52.1476205  58.3608520  27.6778751  52.7513394  59.1371209  29.1611389
  50.7629937  56.3381919  28.8595701  49.8944395  55.9723081  29.4071485
  50.4890621  56.5119630  27.8189615  51.5600835  55.5961655  28.9058699
  50.9029937  56.8351919  33.3045701  51.3949937  57.7931919  33.8995701
  50.7319937  55.6461919  33.8985701  50.1739937  54.4161919  33.2985701
  50.8099071  54.0888538  32.4760348  49.1697241  54.6144033  32.9240653
  50.1759937  53.4261919  34.4775701  51.0894183  52.8314584  34.4844055
  49.3119108  52.7634890  34.4297485  50.0959937  54.3371919  35.6965701
  50.3882792  53.9027191  36.6525521  49.0950661  54.7603637  35.7812403
  51.0819937  55.4171919  35.2985701  50.8616496  56.3613991  35.7965856
  52.4939937  54.9871919  35.6355701  53.2309937  54.4781919  34.7875701
  52.8519937  55.2031919  36.8995701  52.2059439  55.6547427  37.5310928
  54.1289937  54.7521919  37.4265701  54.8978743  54.8685566  36.6627762
  54.5369937  55.5611919  38.6575701  53.6285293  55.8588391  39.1812091
  55.1335245  54.9169390  39.3034720  55.3379937  56.7941919  38.2965701
  55.0979937  57.8631919  38.8915701  56.2139937  56.6871919  37.4075701
  53.7679937  53.3271919  37.8135701  52.5829937  52.9971919  37.9185701
  54.7629937  52.4761919  38.0135701  55.7224847  52.7501208  37.8572391
  54.4879937  51.0861919  38.3525701  53.8824152  50.6228400  37.5736742
  55.8019937  50.3121919  38.4755701  56.4276957  50.8001439  39.2228981
  55.5883490  49.2912145  38.7918946  56.5619937  50.2641919  37.1635701
  56.0549937  50.7101919  36.1345701  57.7759937  49.7201919  37.1885701
  58.3194880  49.6663338  36.3389743  58.1484544  49.3636068  38.0570290
  53.6339937  50.8801919  39.5975701  53.8469937  51.5031919  40.6335701
  52.6529937  49.9931919  39.4715701  52.5231599  49.5270978  38.5850044
  51.7489937  49.6631919  40.5635701  52.3222878  49.5151634  41.4787316
  50.7309937  50.7911919  40.7985701  50.1221659  50.5795209  41.6775600
  51.2638592  51.7308704  40.9440306  49.7799937  51.0091919  39.6605701
  50.1549937  51.6091919  38.4785701  49.1099937  51.6821919  37.6725701
  49.2032992  52.1300085  36.6831999  48.0699937  51.1481919  38.2875701
  47.1355856  51.0645352  37.9134272  48.4619937  50.7181919  39.5325701
  47.7401920  50.2441573  40.1976977  51.0299937  48.3871919  40.1715701
  51.3949937  47.7431919  39.1925701  50.0159937  48.0051919  40.9315701
  49.7483868  48.5196972  41.7584741  49.2839937  46.7941919  40.6075701
  49.2699695  46.6467256  39.5276830  49.9539937  45.5761919  41.2605701
  49.4382459  44.6868975  40.8982733  50.9836285  45.5694538  40.9029294
  49.9459937  45.5821919  42.7785701  48.9109937  44.9771919  43.4955701
  48.0933620  44.5131593  42.9439801  48.9099937  44.9591919  44.8965701
  48.0913532  44.4914347  45.4435003  49.9549937  45.5541919  45.5875701
  49.9719937  45.5281919  46.9625701  49.2144459  45.0739183  47.3385441
  50.9949937  46.1671919  44.8985701  51.8150853  46.6367510  45.4417685
  50.9849937  46.1791919  43.4985701  51.7964394  46.6595668  42.9518564
  47.8449937  46.8991919  41.0655701  47.5049937  47.7561919  41.8785701
  46.9949937  46.0391919  40.5175701  47.3101198  45.3741047  39.8258665
  45.5949937  46.0191919  40.9045701  45.3677920  46.9154425  41.4818165
  44.6759937  45.9791919  39.6815701  44.9560974  45.0584242  39.1698787
  43.6531749  45.8936414  40.0484798  44.7709937  47.1561919  38.7035701
  45.7916906  47.2467278  38.3319764  43.8279937  46.9021919  37.5375701
  42.8069724  46.8119972  37.9083521  43.8866167  47.7331013  36.8345383
  44.1136273  45.9791872  37.0330146  44.4289937  48.4741919  39.4035701
  45.1268748  48.6423065  40.2238133  44.5030811  49.2949700  38.6901728
  43.4131979  48.4249622  39.7957872  45.4029937  44.7601919  41.7285701
  45.7799937  43.6641919  41.3065701  44.8309937  44.9241919  42.9135701
  44.5685561  45.8448802  43.2353757  44.5889937  43.7941919  43.7905701
  45.3359004  43.0197456  43.6160351  44.6759937  44.2371919  45.2545701
  45.6417116  44.7157297  45.4173268  43.8783834  44.9539278  45.4500375
  44.5429937  43.1321919  46.1315701  44.6009104  43.4361520  47.0403350
  43.2089937  43.2281919  43.4845701  42.1919937  43.8751919  43.7445701
  43.1919937  42.0211919  42.9235701  44.0736864  41.5706408  42.7242686
  41.9639937  41.3281919  42.5575701  41.1384923  42.0389399  42.5190500
  42.1049937  40.6651919  41.1805701  43.1605262  40.4138564  41.0767392
  41.5139014  39.7495255  41.1968468  41.6749937  41.5201919  40.0145701
  42.5459937  42.4431919  39.4435701  43.5567939  42.5306425  39.8419856
  42.1429937  43.2511919  38.3755701  42.8355772  43.9687787  37.9356847
  40.8569937  43.1341919  37.8755701  40.4539937  43.9311919  36.8245701
  41.1424130  44.5270486  36.5202128  39.9699937  42.2171919  38.4315701
  38.9572667  42.1223018  38.0398044  40.3829937  41.4181919  39.4945701
  39.6935048  40.6979780  39.9350211  41.5269937  40.2411919  43.5325701
  42.3469937  39.5441919  44.1365701  40.2109937  40.1021919  43.6505701
  39.6194504  40.7103290  43.1025326  39.5769937  39.0831919  44.4775701
  40.2694284  38.2521849  44.6119609  39.1889937  39.6241919  45.8555701
  38.5062754  40.4567284  45.6856349  38.6613995  38.8217726  46.3711936
  40.3449937  40.0881919  46.7005701  41.0233289  39.2477326  46.8475070
  40.8732556  40.8967595  46.1953377  39.8849937  40.5841919  48.0605701
  39.6669937  39.8001919  48.9795701  39.7179937  41.8951919  48.1835701
  39.4132664  42.2818203  49.0654778  39.8964145  42.5001218  47.3946929
  38.3179937  38.7611919  43.6885701  37.6049937  39.6761919  43.2575701
  38.0419937  37.4761919  43.4965701  38.6428340  36.7522204  43.8639331
  36.8739937  37.0771919  42.7195701  36.1373082  37.8804022  42.7038591
  37.2979937  36.7751919  41.2825701  37.8226671  35.8199491  41.2644520
  36.4061394  36.7111555  40.6591961  38.1459937  37.7861919  40.7865701
  38.3997639  37.5770222  39.8846563  36.1639937  35.8541919  43.2845701
  36.7819937  34.9891919  43.9085701  34.8579937  35.7861919  43.0575701
  34.3857938  36.5329166  42.5681534  34.0679937  34.6541919  43.5155701
  34.6915600  33.7991448  43.7766426  33.2429937  35.0401919  44.7275701
  32.6065756  35.8894841  44.4790249  32.6214333  34.1967686  45.0282359
  33.9069950  35.3122329  45.5480548  33.1619937  34.2241919  42.3715701
  32.5029937  35.0561919  41.7535701  33.1569937  32.9271919  42.0815701
  33.7394101  32.2957348  42.6127503  32.3399937  32.3751919  41.0055701
  32.0394456  33.1696692  40.3225066  33.1339937  31.3301919  40.2205701
  33.2159380  30.4722011  40.8878303  32.5334349  31.0586032  39.3524291
  34.5339937  31.7551919  39.7605701  35.1921183  31.8484403  40.6244437
  35.0859937  30.7031919  38.8155701  34.4286033  30.6097001  37.9511651
  36.0815242  30.9983335  38.4840414  35.1447710  29.7450957  39.3319975
  34.4749937  33.1171919  39.0595701  34.0860469  33.8653553  39.7502736
  35.4762150  33.4050774  38.7389783  33.8207072  33.0509692  38.1903045
  31.0949937  31.7281919  41.5925701  31.1809937  30.9551919  42.5465701
  29.9379937  32.0371919  41.0205701  29.8931934  32.6916950  40.2526392
  28.6909937  31.4811919  41.5275701  28.8901917  30.6085924  42.1496550
  27.9719937  32.5361919  42.3785701  28.7092245  33.0580937  42.9886591
  27.4806246  33.2479757  41.7152300  27.0079937  31.9321919  43.2185701
  26.5706003  32.6081913  43.7413622  27.7699937  30.9931919  40.4065701
  28.1479937  30.9771919  39.2345701  26.5569937  30.5981919  40.7765701
  26.2871859  30.6368283  41.7490979  25.5839937  30.1081919  39.8085701
  25.8793373  30.4156935  38.8054180  25.4979937  28.5761919  39.8465701
  25.2876111  28.3108038  40.8826239  24.6462005  28.3056337  39.2225937
  26.7359937  27.8231919  39.3705701  27.5983321  28.2356222  39.8943779
  26.6132479  26.7749505  39.6430138  26.9559937  27.9351919  37.8575701
  26.0438200  27.6378315  37.3402551  27.1952678  28.9684643  37.6061830
  28.1089937  27.0241919  37.4235701  28.9451465  27.2251046  38.0933337
  27.7735108  25.9961601  37.5603215  28.5469937  27.2211919  36.0065701
  28.8583036  28.1736112  35.8797503  29.3058770  26.5882877  35.7976958
  27.7724576  27.0346557  35.3857665  24.1939937  30.6571919  40.1025701
  23.8239937  30.8561919  41.2665701  23.4379937  30.9091919  39.0365701
  23.8068244  30.7386295  38.1119233  22.0649937  31.3641919  39.1565701
  21.9670936  32.0094626  40.0295767  21.6449937  32.1551919  37.9135701
  22.2410583  33.0671104  37.8787726  21.8633641  31.5453398  37.0369317
  20.1699937  32.5151919  37.9245701  19.4619937  32.0521919  38.8325701
  19.7169937  33.2591919  37.0275701  21.3009937  30.0421919  39.2185701
  21.1859937  29.3311919  38.2135701  20.7759937  29.6911919  40.4035701
  20.7019937  30.5251919  41.6165701  20.5760403  31.5725890  41.3423523
  21.6129095  30.4110046  42.2041863  19.4829937  29.9561919  42.3215701
  18.5588092  30.3494465  41.8980931  19.5094322  30.1644797  43.3911581
  19.6239937  28.4851919  42.0585701  18.7113542  27.9085358  42.2090891
  20.4202737  28.0724464  42.6779884  20.0319937  28.4381919  40.5835701
  20.7545927  27.6360188  40.4336790  18.8379937  28.2231919  39.6635701
  18.3819937  27.0901919  39.4915701  18.3409937  29.2961919  39.0585701
  18.7105780  30.2171575  39.2465306  17.1729937  29.1831919  38.1905701
  16.6801324  28.2219145  38.3359413  16.1839937  30.2971919  38.5385701
  16.6303866  31.2653380  38.3115772  15.2822306  30.1643537  37.9408433
  15.8009937  30.2721919  40.0055701  15.4459937  29.2221919  40.5375701
  15.8799937  31.4211919  40.6675701  15.6350914  31.4541230  41.6468751
  16.1845981  32.2565651  40.1885413  17.4639937  29.1781919  36.6995701
  16.5499937  29.0521919  35.8885701  18.7419937  29.2931919  36.3505701
  19.4350911  29.3973691  37.0777995  19.1899937  29.3081919  34.9585701
  18.4241413  29.7462574  34.3185171  20.4669937  30.1521919  34.8435701
  20.2021702  31.1616863  35.1580361  21.1839290  29.7292956  35.5473191
  21.0869937  30.2001919  33.4565701  22.0129283  30.7715398  33.5222018
  21.3128931  29.1760430  33.1596060  20.1749937  30.8341919  32.4275701
  19.7819937  30.1211919  31.4805701  19.8499937  32.0361919  32.5655701
  19.4609937  27.8991919  34.4305701  20.1519937  27.1061919  35.0755701
  18.9189937  27.5961919  33.2535701  18.3424769  28.2740063  32.7757676
  19.1109937  26.2901919  32.6315701  19.1913173  25.5237355  33.4024086
  17.9299937  25.9471919  31.7225701  17.7152996  26.8438376  31.1411648
  18.2714317  25.1554811  31.0557012  16.6709937  25.4961919  32.4395701
  16.9181543  24.7026204  33.1447345  16.2375467  26.3385701  32.9786663
  15.6689937  24.9761919  31.4235701  15.3593529  25.8103472  30.7939619
  16.1656185  24.2239087  30.8107624  14.4529937  24.3651919  32.0845701
  14.7736423  23.5550518  32.7395190  13.9469093  25.1296542  32.6741250
  13.5189937  23.8321919  31.0585701  13.9876155  23.1235026  30.5124449
  12.7132970  23.4280935  31.5142644  13.2214199  24.5828079  30.4518375
  20.3909937  26.2141919  31.7955701  20.9909937  25.1481919  31.6635701
  20.7989937  27.3431919  31.2275701  20.2595854  28.1894676  31.3413922
  21.9939937  27.3901919  30.3835701  22.0113674  26.5371048  29.7053078
  21.9829937  28.6771919  29.5515701  21.9149354  29.5109794  30.2503302
  22.9340153  28.7250553  29.0211296  20.8359937  28.7601919  28.5475701
  21.0446408  28.0751704  27.7257959  19.9156584  28.4577933  29.0472099
  20.6759937  30.1771919  28.0005701  21.6446870  30.5384549  27.6552857
  19.9760639  30.1608371  27.1651479  20.1689937  31.0961919  29.0185701
  19.9818380  30.7094706  29.9326373  19.9549937  32.3951919  28.8225701
  20.2099937  32.9471919  27.6395701  20.5678537  32.3772830  26.8864166
  20.0445933  33.9337145  27.4998721  19.4699937  33.1441919  29.8085701
  19.2654227  32.7241374  30.7040058  19.3084337  34.1296696  29.6574715
  23.3099937  27.3081919  31.1605701  23.3609937  27.5971919  32.3625701
  24.3699937  26.9061919  30.4595701  24.2646419  26.6857185  29.4795743
  25.7019937  26.8201919  31.0485701  25.6643794  26.2208317  31.9582138
  26.6839937  26.1641919  30.0695701  26.1634518  25.3477266  29.5690505
  26.9727955  26.9151994  29.3342597  27.9299937  25.6241919  30.7595701
  28.0989937  25.8491919  31.9805701  28.7429937  24.9701919  30.0765701
  26.0699937  28.2791919  31.2625701  26.0129937  29.0741919  30.3275701
  26.4469937  28.6371919  32.4845701  26.5372698  27.9646671  33.2326743
  26.7519937  30.0351919  32.7705701  27.2383919  30.5002937  31.9131342
  25.4529937  30.7881919  33.0635701  25.7033445  31.8464973  33.1371462
  24.6869031  30.6487641  32.3008349  24.8299937  30.4021919  34.3735701
  24.2339937  29.1771919  34.5805701  23.8379937  29.0881919  35.8385701
  23.3419059  28.1882461  36.2020167  24.1539937  30.2131919  36.4555701
  23.9741968  30.4307759  37.4253279  24.7739937  31.0531919  35.5605701
  25.1104317  32.0390425  35.8815207  27.6619937  30.2181919  33.9765701
  27.9879937  29.2751919  34.6945701  28.0399937  31.4661919  34.2025701
  27.7531423  32.2029343  33.5740590  28.8749937  31.8141919  35.3315701
  28.7350921  31.0778148  36.1229458  30.3639937  31.8441919  34.9455701
  30.6838552  30.8144846  34.7859116  30.4513016  32.4001129  34.0120664
  31.2559937  32.4981919  36.0175701  30.9365128  33.5380211  36.0867654
  31.0319904  31.9867540  36.9537089  33.0519937  32.4421919  35.7195701
  33.2079937  33.6281919  34.4055701  32.8523602  34.5998622  34.7483245
  34.2541032  33.7083156  34.1100439  32.6133446  33.3049392  33.5511689
  28.4719937  33.1811919  35.8505701  28.3009937  34.1251919  35.0775701
  28.2739937  33.2631919  37.1605701  28.3825878  32.4439132  37.7411639
  27.9689937  34.5271919  37.8045701  27.5875359  35.2277379  37.0617213
  26.9239937  34.3821919  38.9265701  27.1988451  33.5476021  39.5715630
  26.8729937  35.6631919  39.7485701  26.5977339  36.4982102  39.1043051
  26.1327021  35.5574113  40.5415892  27.8519931  35.8521190  40.1889885
  25.5469937  34.1011919  38.3275701  25.5828626  33.1770813  37.7506515
  24.8152313  34.0003435  39.1291017  25.2590178  34.9253756  37.6749661
  29.3229937  34.8701919  38.4045701  29.8589937  34.1261919  39.2295701
  29.8949937  35.9771919  37.9645701  29.4439570  36.5458691  37.2622372
  31.2039937  36.3811919  38.4395701  31.6077143  35.6300869  39.1185032
  32.1589937  36.5291919  37.2485701  32.3774795  35.5028839  36.9535189
  31.5944514  37.0219128  36.4569780  33.4739937  37.2841919  37.4845701
  33.2500181  38.2719660  37.8873579  34.3529937  36.5221919  38.4685701
  34.5777899  35.5344196  38.0662376  35.2821593  37.0698661  38.6260663
  33.8287469  36.4163921  39.4183449  34.1949937  37.4641919  36.1575701
  33.5644627  38.0343096  35.4752976  35.1298472  38.0002656  36.3212016
  34.4081290  36.4871856  35.7238293  31.1639937  37.6791919  39.2235701
  30.4809937  38.6331919  38.8395701  31.8979937  37.6951919  40.3305701
  32.4100537  36.8641336  40.5898693  32.0029937  38.8661919  41.1885701
  31.4694270  39.7024604  40.7368394  31.3939937  38.5831919  42.5645701
  30.3327034  38.4095807  42.3867468  31.8526780  37.6696365  42.9428892
  31.5619937  39.7031919  43.5955701  32.6172961  39.9610220  43.6847970
  30.7779937  40.9261919  43.1455701  29.7224588  40.6692450  43.0565586
  30.8965745  41.7243071  43.8784081  31.1522399  41.2628187  42.1787596
  31.0679937  39.2351919  44.9585701  31.6447979  38.3665050  45.2760280
  31.1912375  40.0379469  45.6855479  30.0139900  38.9657965  44.8907373
  33.4829937  39.2101919  41.3545701  34.3129937  38.3381919  41.6245701
  33.8129937  40.4781919  41.1855701  33.1094183  41.1643298  40.9525556
  35.1919937  40.9241919  41.3275701  35.7800976  40.1429539  41.8091304
  35.8139937  41.2331919  39.9595701  35.1289051  41.9179376  39.4596941
  36.7556726  41.7441972  40.1601056  36.0699937  40.0341919  39.0675701
  36.7775927  39.3780903  39.5744579  35.1250147  39.5093843  38.9272460
  36.6329937  40.4361919  37.7115701  37.0799937  39.5451919  36.9605701
  36.6259937  41.6481919  37.3975701  37.0077352  41.7549154  36.5232231
  35.2789937  42.1851919  42.1735701  34.3999937  43.0431919  42.1165701
  36.3459937  42.2681919  42.9605701  36.9960214  41.4951904  42.9662318
  36.6459937  43.4291919  43.7885701  35.8994532  44.2032579  43.6108112
  36.6329937  43.0701919  45.2735701  37.0317654  42.0662616  45.4191872
  37.2299255  43.7836260  45.8417111  35.2649937  43.0791919  45.8785701
  34.5289937  44.2551919  45.9355701  34.9579273  45.1714798  45.5299442
  33.2589937  44.2731919  46.5015701  32.6899943  45.2020656  46.5407362
  32.7159937  43.1041919  47.0175701  31.7218908  43.1131309  47.4645370
  33.4389937  41.9271919  46.9635701  33.0163297  41.0060412  47.3647392
  34.7109937  41.9201919  46.3945701  35.2836691  40.9937548  46.3514761
  38.0489937  43.8161919  43.3525701  38.9549937  42.9821919  43.3635701
  38.2279937  45.0691919  42.9475701  37.4645895  45.7304886  42.9474209
  39.5299937  45.5181919  42.4765701  40.3308354  44.8353858  42.7603439
  39.5359937  45.6731919  40.9535701  39.0594640  46.6158777  40.6845680
  40.9619937  45.6651919  40.4435701  41.4390652  44.7225614  40.7118081
  40.9612200  45.7757660  39.3591932  41.5134802  46.4914832  40.8921312
  38.7049937  44.5761919  40.3165701  37.6789701  44.6400281  40.6789271
  38.7151518  44.6946683  39.2330759  39.1227138  43.6042693  40.5792052
  39.9459937  46.8471919  43.0715701  39.2119937  47.8361919  42.9905701
  41.1349937  46.8651919  43.6585701  41.6870940  46.0206520  43.7037041
  41.6749937  48.0741919  44.2575701  41.1092520  48.9353970  43.9020968
  41.5859937  48.0271919  45.7955701  42.1649113  47.1780017  46.1586551
  42.1369937  49.3141919  46.4015701  41.5582450  50.1638383  46.0392850
  42.0665072  49.2640309  47.4881310  43.1804853  49.4355916  46.1109020
  40.2169937  47.8781919  46.1885701  40.1604491  47.8488067  47.1464529
  43.1359937  48.2341919  43.8525701  43.9129937  47.2851919  43.9235701
  43.5029937  49.4361919  43.4195701  42.8231324  50.1796468  43.3477182
  44.8729937  49.7121919  43.0125701  45.2935032  48.8681310  42.4659146
  44.9169937  50.9481919  42.1125701  44.5075314  51.8039240  42.6493785
  45.9491358  51.1566204  41.8308956  44.3257131  50.7660726  41.2151744
  45.7339937  49.9321919  44.2495701  45.2549937  50.4231919  45.2745701
  47.0059937  49.5681919  44.1535701  47.3591564  49.1493107  43.3050926
  47.9179937  49.7271919  45.2755701  47.7783088  50.6986889  45.7496806
  47.6619937  48.6341919  46.3155701  47.8069226  47.6555200  45.8580801
  48.3572165  48.7527314  47.1466621  46.6392382  48.7146899  46.6837962
  49.3569937  49.6641919  44.7815701  49.5999937  49.6061919  43.5785701
  50.3029937  49.6901919  45.7165701  50.0630411  49.7500531  46.6958243
  51.7069937  49.6331919  45.3545701  52.2087500  48.9857252  46.0736853
  51.7753024  49.1923392  44.3600440  52.3939937  50.9831919  45.3435701
  53.5619937  51.0851919  44.9755701  51.6719937  52.0241919  45.7385701
  50.7039882  51.8999228  45.9986120  52.2329937  53.3711919  45.7825701
  53.3218941  53.3261282  45.7634774  51.7319937  54.2221919  44.5935701
  50.6445201  54.1653243  44.5459518  52.1559937  55.6711919  44.7715701
  53.2434387  55.7289191  44.8188116  51.7976342  56.2613945  43.9281603
  51.7313519  56.0636779  45.6955470  52.2869937  53.6571919  43.2835701
  53.3719874  53.6275859  43.3836355  51.9037016  52.6413942  43.1869177
  51.9149937  54.4571919  42.0495701  52.2983748  55.4730443  42.1452919
  52.3488365  53.9873337  41.1668964  50.8300882  54.4868544  41.9485755
  51.8439937  54.0461919  47.0975701  50.6739937  54.0441919  47.4805701
  52.8309937  54.6161919  47.7845701  53.7765110  54.5761936  47.4317295
  52.5959937  55.2851919  49.0635701  51.8850887  54.7104158  49.6571572
  53.9079937  55.4221919  49.8625701  54.6239566  55.9924115  49.2706689
  53.6599937  56.1361919  51.1845701  52.9444321  55.5662855  51.7772570
  54.5980188  56.2226598  51.7329600  53.2597629  57.1314223  50.9910960
  54.4459937  54.1211919  50.1255701  55.2626057  54.2071705  50.6229159
  51.9979937  56.6761919  48.8885701  52.2079937  57.2771919  47.8155701
  51.3157352  57.1783867  49.7789426  33.0609160  14.5599040  42.0470100
  27.2837580  59.7294830  32.9697290  40.2081160  58.1417160  15.6566950
  33.9109700  39.5965780  15.6222120  21.4881770  44.4090000  33.4886030
  36.4380410  11.5022100  27.3677160  45.3252920  51.5793320  17.2835230
  67.6007640  77.4623110  59.0436770  67.5201690  76.5477720  58.7728480
  67.1872060  77.9590180  58.3376480  65.7325680  79.2402130  60.9246040
  64.9567780  78.7602570  61.2144610  66.3838610  78.5607780  60.7502200
  59.7491510  79.5521940  61.8021800  58.9176390  79.2970650  62.2018310
  60.3572490  79.6232710  62.5379720  58.1583460  74.5123830  55.5864190
  57.2700160  74.8539800  55.4844070  58.4424650  74.3124150  54.6945020
  56.1216470  77.1129480  61.4703890  56.6932580  76.3451680  61.4707530
  56.1218010  77.4118240  60.5610500  66.2039840  74.7229700  61.1585130
  66.5804660  73.8501580  61.0458800  66.1059350  75.0588400  60.2675570
  60.3344850  73.0955330  56.6202570  60.4411600  73.9959060  56.9271330
  59.4237210  73.0473300  56.3297220  69.9863960  72.2180140  58.0913470
  70.8073580  71.7276710  58.1338950  70.0198040  72.8077800  58.8445310
  57.9828010  75.0174340  61.8655160  58.6638120  75.2812710  62.4842560
  57.6676060  74.1775210  62.1993170  62.1752580  76.0641700  60.9527750
  62.6830800  76.5622670  61.5932770  62.7065820  75.2876900  60.7767110
  70.2225440  74.1580520  60.8641010  69.5181010  74.4465410  61.4444120
  70.5837600  74.9680630  60.5040570  63.8231900  69.9032490  59.5506210
  64.1306880  69.3479380  58.8341710  62.8932600  70.0376950  59.3679200
  66.2112660  77.9681320  56.2866330  65.2841940  77.9018700  56.5154800
  66.3637480  78.9061450  56.1721570  66.1981740  74.2398320  53.2833490
  65.2585410  74.4012280  53.3685950  66.5165000  74.9584000  52.7369480
  70.2409950  79.5301620  56.7901580  69.6222370  79.1921170  56.1427880
  70.2234400  78.8861380  57.4980770  61.8169300  78.4946060  59.0686060
  61.4126300  77.7823310  58.5731960  61.9032420  78.1499300  59.9574100
  68.4174650  78.7688430  53.7974330  68.8567930  77.9310860  53.6512150
  69.1303070  79.4017830  53.8838470  58.5173930  77.3891040  56.5692710
  58.3971530  78.1153130  55.9573980  58.2074820  76.6193950  56.0920620
  60.9837590  70.7326110  59.9516380  60.5405740  71.5135650  59.6200900
  61.5422580  71.0556000  60.6587320  64.0996410  70.3536810  54.8322210
  63.4750590  70.3496680  55.5575520  64.0126530  69.4867770  54.4358180
  63.0213490  71.2773440  61.8105980  63.3185820  72.1836270  61.7298000
  63.5699050  70.7892220  61.1965550  60.7751810  75.8559680  57.6797630
  60.5492730  75.6396850  58.5844250  59.9944340  76.2888140  57.3343600
  68.0049570  75.8623050  56.2788280  67.4058460  76.5858850  56.0951900
  68.5529180  75.7999830  55.4964730  66.6114440  74.4986590  58.3091560
  67.0044010  74.8158790  57.4960250  66.9731290  73.6198470  58.4236080
  55.6478610  71.0887390  60.5321760  55.3591660  71.6590250  61.2446740
  56.3924370  70.6091840  60.8952990  55.8348840  75.0307510  51.7424480
  55.7523510  75.9738270  51.8839470  55.4831900  74.8882420  50.8636830
  67.1969580  77.0892340  62.4042340  66.4650700  77.5979150  62.7532440
  66.7993920  76.2722320  62.1031120  63.6346970  73.7646540  60.8094830
  63.6383030  73.3236490  59.9599370  64.5298090  74.0863870  60.9166650
  59.4849350  73.6473030  59.7689040  59.1449400  74.1248260  60.5256090
  58.7226670  73.1938150  59.4090140  63.6967120  74.7658620  53.8001590
  63.8179940  74.7245100  54.7487410  63.3115630  75.6282770  53.6448320
  67.6595490  72.5426020  61.8165280  67.6768230  72.9934670  62.6607130
  67.4111070  71.6431660  62.0298720  62.7088620  77.0759760  53.1984890
  62.1405520  76.6278010  52.5720800  63.4177620  77.4352540  52.6650040
  56.7995430  72.5692010  58.6853710  56.5142350  72.2047680  59.5232330
  56.7374290  71.8372470  58.0716850  66.4734020  71.4621270  55.4067080
  65.6598630  70.9634440  55.3312390  66.2795970  72.3019520  54.9903430
  69.1882410  75.8340920  53.7029240  70.0762030  76.1458150  53.5280580
  69.1587500  74.9613170  53.3109820  56.2926090  77.7050960  52.6450410
  57.1620940  77.9875760  52.9286330  55.8016410  78.5186830  52.5299220
  63.4560900  79.0924170  56.7658690  63.9123680  79.9029420  56.9918880
  63.1049110  78.7747310  57.5977180  59.3572680  69.4361820  57.2381210
  59.2287310  69.4279720  58.1866130  58.5334700  69.7744910  56.8872220
  71.2167420  72.6432190  55.2576920  70.5880580  72.7477860  54.5435150
  70.7219340  72.8628970  56.0470800  63.1851450  74.9218140  56.6734800
  62.4767600  75.3904480  57.1148410  63.4695930  74.2640150  57.3079990
  67.2166880  71.6468800  58.1130590  67.0934660  71.6654930  57.1640100
  68.1651440  71.6947740  58.2328990  61.3886470  73.2303220  54.0485510
  62.2377000  73.6673370  53.9825700  61.0217740  73.5423480  54.8757570
  70.3096250  77.8015980  58.9617080  69.3686390  77.8166210  59.1364770
  70.6240320  77.0151940  59.4077380  60.2877890  79.4835580  52.5221040
  61.0541160  79.3716940  53.0846470  60.3652580  78.7873550  51.8697810
  58.9824650  76.9160650  53.2053930  59.0628240  75.9688160  53.3171330
  59.8744400  77.2467530  53.3114590  62.3196920  79.4800710  54.4963680
  62.7413340  79.3140580  55.3395070  62.4447760  78.6700940  54.0018820
  64.8324560  78.5038320  51.7440780  65.3530220  77.7887340  51.3781930
  65.4792960  79.1424190  52.0441290  61.2155820  75.5533940  51.4421840
  61.0144880  74.6901300  51.8035180  61.0447870  75.4667300  50.5043440
  68.6944130  70.3642170  53.9708720  68.9746420  69.5210070  54.3268140
  67.9209860  70.5965280  54.4847470  60.0138620  72.6534560  51.4299720
  60.3164520  72.6601990  50.5218870  60.7533210  72.3032420  51.9267380
  63.2323550  71.5969180  52.4155920  62.8845550  70.9193170  51.8358370
  63.4336320  71.1358690  53.2299310  56.5729190  78.1256830  58.8120290
  55.9178030  77.8568470  58.1679990  57.4107140  78.0161310  58.3622270
  69.5219630  72.9198120  53.0338780  69.9404510  72.7329100  52.1935440
  69.2155690  72.0677170  53.3441710  55.7867270  75.3355760  54.7545620
  54.8831350  75.5985960  54.5797280  56.2707890  75.6066930  53.9745580
  58.3294480  74.3921300  52.6640000  59.0386180  73.9704520  52.1787280
  57.6134420  74.4596530  52.0323350  57.9768640  70.4460630  51.7042650
  58.6996770  70.9869570  52.0223870  58.2493160  70.1724050  50.8284190
  57.6660830  69.6966820  61.6065270  58.3137020  69.1464200  61.1660430
  58.0862670  69.9509970  62.4281080  66.0575070  70.1806410  62.7764500
  65.2746860  70.6551910  63.0561260  65.7638000  69.2761240  62.6677680
  70.6096140  70.8829510  60.8213590  71.0504230  70.8274610  59.9735190
  70.3403730  71.7987520  60.8923770  57.4015480  70.4853890  55.2978220
  58.1594840  70.5982770  54.7242250  56.9392650  71.3223090  55.2521650
  63.9429290  72.5993160  58.2880530  63.1303800  72.2250050  57.9476410
  64.4470930  71.8438240  58.5901720  68.4454270  69.2635610  59.5263600
  69.0483640  69.8355820  60.0012120  67.7047260  69.8275050  59.3037500
  59.7740630  71.0117940  53.8380190  60.3033390  70.2247740  53.7088140
  60.4068950  71.6909130  54.0715720  61.9678470  70.7493080  56.8925580
  61.3381210  70.0480390  57.0595710  61.4283610  71.5097210  56.6758740
  67.6007640  77.4623110  40.2693280  67.5201690  76.5477720  39.9984990
  67.1872060  77.9590180  39.5632990  65.7325680  79.2402130  42.1502550
  64.9567780  78.7602570  42.4401120  66.3838610  78.5607780  41.9758710
  59.7491510  79.5521940  43.0278310  58.9176390  79.2970650  43.4274820
  60.3572490  79.6232710  43.7636230  58.1583460  74.5123830  36.8120700
  57.2700160  74.8539800  36.7100580  58.4424650  74.3124150  35.9201530
  56.1216470  77.1129480  42.6960400  56.6932580  76.3451680  42.6964040
  56.1218010  77.4118240  41.7867010  57.3641340  72.5213840  44.4829330
  57.1844180  71.6239590  44.7632090  56.9621420  73.0685710  45.1576280
  66.2039840  74.7229700  42.3841640  66.5804660  73.8501580  42.2715310
  66.1059350  75.0588400  41.4932080  60.3344850  73.0955330  37.8459080
  60.4411600  73.9959060  38.1527840  59.4237210  73.0473300  37.5553730
  69.9863960  72.2180140  39.3169980  70.8073580  71.7276710  39.3595460
  70.0198040  72.8077800  40.0701820  57.9828010  75.0174340  43.0911670
  58.6638120  75.2812710  43.7099070  57.6676060  74.1775210  43.4249680
  62.1752580  76.0641700  42.1784260  62.6830800  76.5622670  42.8189280
  62.7065820  75.2876900  42.0023620  60.4588680  70.7040260  46.4447680
  60.4607120  71.2212650  45.6393580  59.6292990  70.2270440  46.4217610
  70.2225440  74.1580520  42.0897520  69.5181010  74.4465410  42.6700630
  70.5837600  74.9680630  41.7297080  60.1404010  72.4150220  44.4518130
  60.4820820  73.2592270  44.1572000  59.2019820  72.5633960  44.5683470
  63.8231900  69.9032490  40.7762720  64.1306880  69.3479380  40.0598220
  62.8932600  70.0376950  40.5935710  66.2112660  77.9681320  37.5122840
  65.2841940  77.9018700  37.7411310  66.3637480  78.9061450  37.3978080
  66.1981740  74.2398320  34.5090000  65.2585410  74.4012280  34.5942460
  66.5165000  74.9584000  33.9625990  70.2409950  79.5301620  38.0158090
  69.6222370  79.1921170  37.3684390  70.2234400  78.8861380  38.7237280
  69.6836510  75.7086160  45.4323900  69.2707690  76.5339870  45.6863890
  68.9512460  75.1231200  45.2400260  61.8169300  78.4946060  40.2942570
  61.4126300  77.7823310  39.7988470  61.9032420  78.1499300  41.1830610
  60.5297920  75.2689270  44.0741610  61.0812510  75.3784610  43.2994860
  61.0441430  75.6426870  44.7896840  68.4174650  78.7688430  35.0230840
  68.8567930  77.9310860  34.8768660  69.1303070  79.4017830  35.1094980
  60.2040650  78.7908630  47.6846950  60.0648420  79.6631430  48.0534350
  59.3222010  78.4481440  47.5394890  58.5173930  77.3891040  37.7949220
  58.3971530  78.1153130  37.1830490  58.2074820  76.6193950  37.3177130
  60.9837590  70.7326110  41.1772890  60.5405740  71.5135650  40.8457410
  61.5422580  71.0556000  41.8843830  65.2707400  73.5994630  46.7808210
  64.8086770  73.8077650  47.5928150  64.8685510  72.7853980  46.4778880
  70.2711910  74.8203580  47.9104870  69.4205500  74.5209330  48.2313940
  70.1113700  75.0645590  46.9988690  67.3661620  76.3205330  50.0103660
  67.6915030  75.4869080  49.6705890  68.1541950  76.8433850  50.1581990
  64.0996410  70.3536810  36.0578720  63.4750590  70.3496680  36.7832030
  64.0126530  69.4867770  35.6614690  63.0213490  71.2773440  43.0362490
  63.3185820  72.1836270  42.9554510  63.5699050  70.7892220  42.4222060
  60.7751810  75.8559680  38.9054140  60.5492730  75.6396850  39.8100760
  59.9944340  76.2888140  38.5600110  68.0049570  75.8623050  37.5044790
  67.4058460  76.5858850  37.3208410  68.5529180  75.7999830  36.7221240
  63.2151020  76.7545260  49.5714410  63.1194620  75.8139990  49.4214810
  64.0583000  76.9760330  49.1762480  66.6114440  74.4986590  39.5348070
  67.0044010  74.8158790  38.7216760  66.9731290  73.6198470  39.6492590
  58.3461560  73.1658930  47.7248190  57.9524950  74.0134140  47.9320970
  57.6579960  72.5285300  47.9156830  64.9206610  73.2493900  50.7944930
  64.2304930  73.0566100  51.4291020  65.6638910  73.5328540  51.3269230
  55.6478610  71.0887390  41.7578270  55.3591660  71.6590250  42.4703250
  56.3924370  70.6091840  42.1209500  55.8348840  75.0307510  32.9680990
  55.7523510  75.9738270  33.1095980  55.4831900  74.8882420  32.0893340
  67.1969580  77.0892340  43.6298850  66.4650700  77.5979150  43.9788950
  66.7993920  76.2722320  43.3287630  63.6346970  73.7646540  42.0351340
  63.6383030  73.3236490  41.1855880  64.5298090  74.0863870  42.1423160
  59.4849350  73.6473030  40.9945550  59.1449400  74.1248260  41.7512600
  58.7226670  73.1938150  40.6346650  63.6967120  74.7658620  35.0258100
  63.8179940  74.7245100  35.9743920  63.3115630  75.6282770  34.8704830
  67.6595490  72.5426020  43.0421790  67.6768230  72.9934670  43.8863640
  67.4111070  71.6431660  43.2555230  62.7088620  77.0759760  34.4241400
  62.1405520  76.6278010  33.7977310  63.4177620  77.4352540  33.8906550
  71.0866240  69.9558200  48.8808170  71.4112010  69.2247860  49.4066150
  71.1222750  69.6371840  47.9789160  63.9354940  77.8248320  43.7816750
  64.3025070  77.3506890  44.5278090  63.7460000  78.6989890  44.1225090
  56.7995430  72.5692010  39.9110220  56.5142350  72.2047680  40.7488840
  56.7374290  71.8372470  39.2973360  61.7254310  76.8656960  46.1000960
  61.4211380  77.7448940  46.3251320  62.6800770  76.9256750  46.1358400
  66.4734020  71.4621270  36.6323590  65.6598630  70.9634440  36.5568900
  66.2795970  72.3019520  36.2159940  69.1882410  75.8340920  34.9285750
  70.0762030  76.1458150  34.7537090  69.1587500  74.9613170  34.5366330
  57.7818040  77.7059700  47.2472320  57.4232980  78.3713550  47.8345660
  57.4872600  76.8743250  47.6184940  60.9831160  78.1643940  50.1311870
  60.6831300  78.3101120  49.2339690  61.7542400  77.6049230  50.0385260
  56.2926090  77.7050960  33.8706920  57.1620940  77.9875760  34.1542840
  55.8016410  78.5186830  33.7555730  63.4560900  79.0924170  37.9915200
  63.9123680  79.9029420  38.2175390  63.1049110  78.7747310  38.8233690
  59.3572680  69.4361820  38.4637720  59.2287310  69.4279720  39.4122640
  58.5334700  69.7744910  38.1128730  56.3566610  71.1952940  47.9244420
  55.6425130  71.3949860  48.5297030  56.7761650  70.4192510  48.2959220
  67.8505390  73.6875250  45.6745870  68.2186210  72.8670460  46.0025440
  66.9903590  73.7477140  46.0901520  71.2167420  72.6432190  36.4833430
  70.5880580  72.7477860  35.7691660  70.7219340  72.8628970  37.2727310
  63.1851450  74.9218140  37.8991310  62.4767600  75.3904480  38.3404920
  63.4695930  74.2640150  38.5336500  64.8107380  76.3414840  45.8983840
  65.3092630  76.8160660  46.5635690  64.9530330  75.4178360  46.1053870
  67.2166880  71.6468800  39.3387100  67.0934660  71.6654930  38.3896610
  68.1651440  71.6947740  39.4585500  61.3886470  73.2303220  35.2742020
  62.2377000  73.6673370  35.2082210  61.0217740  73.5423480  36.1014080
  70.3096250  77.8015980  40.1873590  69.3686390  77.8166210  40.3621280
  70.6240320  77.0151940  40.6333890  60.2877890  79.4835580  33.7477550
  61.0541160  79.3716940  34.3102980  60.3652580  78.7873550  33.0954320
  58.9824650  76.9160650  34.4310440  59.0628240  75.9688160  34.5427840
  59.8744400  77.2467530  34.5371100  56.5095450  78.7375570  49.6666610
  57.0134470  78.1582850  50.2382840  55.7702870  79.0215800  50.2042980
  58.5418530  76.8805160  50.5616680  58.5823870  76.5819030  51.4701910
  59.3964030  77.2812770  50.4024200  62.3196920  79.4800710  35.7220190
  62.7413340  79.3140580  36.5651580  62.4447760  78.6700940  35.2275330
  60.4824340  75.4597260  48.5291170  59.9520800  74.9688210  47.9014510
  61.1512410  75.8881460  47.9949100  64.8324560  78.5038320  32.9697290
  65.3530220  77.7887340  32.6038440  65.4792960  79.1424190  33.2697800
  69.8524570  77.2662880  50.2971510  70.4345340  76.5115200  50.2091990
  70.0286340  77.7970320  49.5202990  60.9696640  72.4259630  48.6088460
  60.8753510  71.8080380  47.8839330  60.3894030  73.1525920  48.3818370
  63.7358080  70.9832870  45.6415850  63.2875380  71.0057130  44.7961400
  63.1023280  70.5851890  46.2386150  66.4781530  77.6103380  47.6466130
  66.5977740  77.0144520  48.3860970  67.3375530  77.6473070  47.2267430
  68.8169430  78.1640570  46.2228640  68.2904650  78.6883190  45.6193780
  69.1600770  78.7967960  46.8538370  61.2155820  75.5533940  32.6678350
  61.0144880  74.6901300  33.0291690  61.0447870  75.4667300  31.7299950
  63.2450300  74.1524730  48.9041950  63.8349990  73.8440580  49.5919770
  62.4270540  73.6804480  49.0601850  68.0643730  73.7690540  49.1374970
  67.3759250  73.1072080  49.0724960  68.7849750  73.3228810  49.5823430
  68.6944130  70.3642170  35.1965230  68.9746420  69.5210070  35.5524650
  67.9209860  70.5965280  35.7103980  60.0138620  72.6534560  32.6556230
  60.3164520  72.6601990  31.7475380  60.7533210  72.3032420  33.1523890
  63.2323550  71.5969180  33.6412430  62.8845550  70.9193170  33.0614880
  63.4336320  71.1358690  34.4555820  56.5729190  78.1256830  40.0376800
  55.9178030  77.8568470  39.3936500  57.4107140  78.0161310  39.5878780
  69.5219630  72.9198120  34.2595290  69.9404510  72.7329100  33.4191950
  69.2155690  72.0677170  34.5698220  57.6105120  78.5109400  44.5780140
  57.9778160  78.4236800  45.4576160  57.0415940  77.7475950  44.4787000
  57.1621120  75.4218490  48.4838560  56.2677170  75.3885250  48.8232270
  57.7018670  75.6205280  49.2489810  55.7867270  75.3355760  35.9802130
  54.8831350  75.5985960  35.8053790  56.2707890  75.6066930  35.2002090
  58.3294480  74.3921300  33.8896510  59.0386180  73.9704520  33.4043790
  57.6134420  74.4596530  33.2579860  57.9768640  70.4460630  32.9299160
  58.6996770  70.9869570  33.2480380  58.2493160  70.1724050  32.0540700
  57.6660830  69.6966820  42.8321780  58.3137020  69.1464200  42.3916940
  58.0862670  69.9509970  43.6537590  57.4192830  69.8522490  45.5747100
  57.0707650  70.3086310  46.3405280  57.0880530  68.9579620  45.6569530
  64.9317650  71.0434370  49.0966520  64.8706540  71.6356200  49.8461930
  65.8718030  70.9360330  48.9516780  67.5692210  70.7004430  48.7358810
  68.1832620  71.0183720  48.0739890  68.1141770  70.2153020  49.3554670
  58.0913470  69.3798690  48.8497870  58.6396460  69.1986740  48.0863980
  58.1568780  68.5892800  49.3854180  68.3100250  69.2636570  45.0628100
  67.4360090  69.5971680  44.8601030  68.2011000  68.7909750  45.8879970
  69.2172230  71.4707440  46.4469820  68.8885590  70.6559200  46.0671550
  70.1654530  71.4277250  46.3235510  66.0575070  70.1806410  44.0021010
  65.2746860  70.6551910  44.2817770  65.7638000  69.2761240  43.8934190
  70.6096140  70.8829510  42.0470100  71.0504230  70.8274610  41.1991700
  70.3403730  71.7987520  42.1180280  57.4015480  70.4853890  36.5234730
  58.1594840  70.5982770  35.9498760  56.9392650  71.3223090  36.4778160
  63.9429290  72.5993160  39.5137040  63.1303800  72.2250050  39.1732920
  64.4470930  71.8438240  39.8158230  68.4454270  69.2635610  40.7520110
  69.0483640  69.8355820  41.2268630  67.7047260  69.8275050  40.5294010
  59.7740630  71.0117940  35.0636700  60.3033390  70.2247740  34.9344650
  60.4068950  71.6909130  35.2972230  61.9678470  70.7493080  38.1182090
  61.3381210  70.0480390  38.2852220  61.4283610  71.5097210  37.9015250
  62.0934030  70.0277060  50.5534580  61.8118300  70.5310660  49.7895400
  62.4753730  69.2298810  50.1876710  68.6949490  69.4430640  51.1315050
  68.5814940  69.7625250  52.0266570  69.5119230  69.8443150  50.8352330
  67.6007640  77.4623110  21.4949790  67.5201690  76.5477720  21.2241500
  67.1872060  77.9590180  20.7889500  65.7325680  79.2402130  23.3759060
  64.9567780  78.7602570  23.6657630  66.3838610  78.5607780  23.2015220
  59.7491510  79.5521940  24.2534820  58.9176390  79.2970650  24.6531330
  60.3572490  79.6232710  24.9892740  58.1583460  74.5123830  18.0377210
  57.2700160  74.8539800  17.9357090  58.4424650  74.3124150  17.1458040
  56.1216470  77.1129480  23.9216910  56.6932580  76.3451680  23.9220550
  56.1218010  77.4118240  23.0123520  57.3641340  72.5213840  25.7085840
  57.1844180  71.6239590  25.9888600  56.9621420  73.0685710  26.3832790
  66.2039840  74.7229700  23.6098150  66.5804660  73.8501580  23.4971820
  66.1059350  75.0588400  22.7188590  60.3344850  73.0955330  19.0715590
  60.4411600  73.9959060  19.3784350  59.4237210  73.0473300  18.7810240
  69.9863960  72.2180140  20.5426490  70.8073580  71.7276710  20.5851970
  70.0198040  72.8077800  21.2958330  57.9828010  75.0174340  24.3168180
  58.6638120  75.2812710  24.9355580  57.6676060  74.1775210  24.6506190
  62.1752580  76.0641700  23.4040770  62.6830800  76.5622670  24.0445790
  62.7065820  75.2876900  23.2280130  60.4588680  70.7040260  27.6704190
  60.4607120  71.2212650  26.8650090  59.6292990  70.2270440  27.6474120
  70.2225440  74.1580520  23.3154030  69.5181010  74.4465410  23.8957140
  70.5837600  74.9680630  22.9553590  60.1404010  72.4150220  25.6774640
  60.4820820  73.2592270  25.3828510  59.2019820  72.5633960  25.7939980
  63.8231900  69.9032490  22.0019230  64.1306880  69.3479380  21.2854730
  62.8932600  70.0376950  21.8192220  66.2112660  77.9681320  18.7379350
  65.2841940  77.9018700  18.9667820  66.3637480  78.9061450  18.6234590
  66.1981740  74.2398320  15.7346510  65.2585410  74.4012280  15.8198970
  66.5165000  74.9584000  15.1882500  70.2409950  79.5301620  19.2414600
  69.6222370  79.1921170  18.5940900  70.2234400  78.8861380  19.9493790
  69.6836510  75.7086160  26.6580410  69.2707690  76.5339870  26.9120400
  68.9512460  75.1231200  26.4656770  61.8169300  78.4946060  21.5199080
  61.4126300  77.7823310  21.0244980  61.9032420  78.1499300  22.4087120
  60.5297920  75.2689270  25.2998120  61.0812510  75.3784610  24.5251370
  61.0441430  75.6426870  26.0153350  68.4174650  78.7688430  16.2487350
  68.8567930  77.9310860  16.1025170  69.1303070  79.4017830  16.3351490
  60.2040650  78.7908630  28.9103460  60.0648420  79.6631430  29.2790860
  59.3222010  78.4481440  28.7651400  58.5173930  77.3891040  19.0205730
  58.3971530  78.1153130  18.4087000  58.2074820  76.6193950  18.5433640
  60.9837590  70.7326110  22.4029400  60.5405740  71.5135650  22.0713920
  61.5422580  71.0556000  23.1100340  65.2707400  73.5994630  28.0064720
  64.8086770  73.8077650  28.8184660  64.8685510  72.7853980  27.7035390
  70.2711910  74.8203580  29.1361380  69.4205500  74.5209330  29.4570450
  70.1113700  75.0645590  28.2245200  67.3661620  76.3205330  31.2360170
  67.6915030  75.4869080  30.8962400  68.1541950  76.8433850  31.3838500
  64.0996410  70.3536810  17.2835230  63.4750590  70.3496680  18.0088540
  64.0126530  69.4867770  16.8871200  63.0213490  71.2773440  24.2619000
  63.3185820  72.1836270  24.1811020  63.5699050  70.7892220  23.6478570
  60.7751810  75.8559680  20.1310650  60.5492730  75.6396850  21.0357270
  59.9944340  76.2888140  19.7856620  68.0049570  75.8623050  18.7301300
  67.4058460  76.5858850  18.5464920  68.5529180  75.7999830  17.9477750
  63.2151020  76.7545260  30.7970920  63.1194620  75.8139990  30.6471320
  64.0583000  76.9760330  30.4018990  66.6114440  74.4986590  20.7604580
  67.0044010  74.8158790  19.9473270  66.9731290  73.6198470  20.8749100
  58.3461560  73.1658930  28.9504700  57.9524950  74.0134140  29.1577480
  57.6579960  72.5285300  29.1413340  64.9206610  73.2493900  32.0201440
  64.2304930  73.0566100  32.6547530  65.6638910  73.5328540  32.5525740
  55.6478610  71.0887390  22.9834780  55.3591660  71.6590250  23.6959760
  56.3924370  70.6091840  23.3466010  55.8348840  75.0307510  14.1937500
  55.7523510  75.9738270  14.3352490  55.4831900  74.8882420  13.3149850
  67.1969580  77.0892340  24.8555360  66.4650700  77.5979150  25.2045460
  66.7993920  76.2722320  24.5544140  63.6346970  73.7646540  23.2607850
  63.6383030  73.3236490  22.4112390  64.5298090  74.0863870  23.3679670
  59.4849350  73.6473030  22.2202060  59.1449400  74.1248260  22.9769110
  58.7226670  73.1938150  21.8603160  63.6967120  74.7658620  16.2514610
  63.8179940  74.7245100  17.2000430  63.3115630  75.6282770  16.0961340
  67.6595490  72.5426020  24.2678300  67.6768230  72.9934670  25.1120150
  67.4111070  71.6431660  24.4811740  62.7088620  77.0759760  15.6497910
  62.1405520  76.6278010  15.0233820  63.4177620  77.4352540  15.1163060
  71.0866240  69.9558200  30.1064680  71.4112010  69.2247860  30.6322660
  71.1222750  69.6371840  29.2045670  63.9354940  77.8248320  25.0073260
  64.3025070  77.3506890  25.7534600  63.7460000  78.6989890  25.3481600
  56.7995430  72.5692010  21.1366730  56.5142350  72.2047680  21.9745350
  56.7374290  71.8372470  20.5229870  61.7254310  76.8656960  27.3257470
  61.4211380  77.7448940  27.5507830  62.6800770  76.9256750  27.3614910
  66.4734020  71.4621270  17.8580100  65.6598630  70.9634440  17.7825410
  66.2795970  72.3019520  17.4416450  69.1882410  75.8340920  16.1542260
  70.0762030  76.1458150  15.9793600  69.1587500  74.9613170  15.7622840
  57.7818040  77.7059700  28.4728830  57.4232980  78.3713550  29.0602170
  57.4872600  76.8743250  28.8441450  60.9831160  78.1643940  31.3568380
  60.6831300  78.3101120  30.4596200  61.7542400  77.6049230  31.2641770
  56.2926090  77.7050960  15.0963430  57.1620940  77.9875760  15.3799350
  55.8016410  78.5186830  14.9812240  63.4560900  79.0924170  19.2171710
  63.9123680  79.9029420  19.4431900  63.1049110  78.7747310  20.0490200
  59.3572680  69.4361820  19.6894230  59.2287310  69.4279720  20.6379150
  58.5334700  69.7744910  19.3385240  56.3566610  71.1952940  29.1500930
  55.6425130  71.3949860  29.7553540  56.7761650  70.4192510  29.5215730
  67.8505390  73.6875250  26.9002380  68.2186210  72.8670460  27.2281950
  66.9903590  73.7477140  27.3158030  71.2167420  72.6432190  17.7089940
  70.5880580  72.7477860  16.9948170  70.7219340  72.8628970  18.4983820
  63.1851450  74.9218140  19.1247820  62.4767600  75.3904480  19.5661430
  63.4695930  74.2640150  19.7593010  64.8107380  76.3414840  27.1240350
  65.3092630  76.8160660  27.7892200  64.9530330  75.4178360  27.3310380
  67.2166880  71.6468800  20.5643610  67.0934660  71.6654930  19.6153120
  68.1651440  71.6947740  20.6842010  61.3886470  73.2303220  16.4998530
  62.2377000  73.6673370  16.4338720  61.0217740  73.5423480  17.3270590
  70.3096250  77.8015980  21.4130100  69.3686390  77.8166210  21.5877790
  70.6240320  77.0151940  21.8590400  60.2877890  79.4835580  14.9734060
  61.0541160  79.3716940  15.5359490  60.3652580  78.7873550  14.3210830
  58.9824650  76.9160650  15.6566950  59.0628240  75.9688160  15.7684350
  59.8744400  77.2467530  15.7627610  56.5095450  78.7375570  30.8923120
  57.0134470  78.1582850  31.4639350  55.7702870  79.0215800  31.4299490
  58.5418530  76.8805160  31.7873190  58.5823870  76.5819030  32.6958420
  59.3964030  77.2812770  31.6280710  62.3196920  79.4800710  16.9476700
  62.7413340  79.3140580  17.7908090  62.4447760  78.6700940  16.4531840
  60.4824340  75.4597260  29.7547680  59.9520800  74.9688210  29.1271020
  61.1512410  75.8881460  29.2205610  64.8324560  78.5038320  14.1953800
  65.3530220  77.7887340  13.8294950  65.4792960  79.1424190  14.4954310
  69.8524570  77.2662880  31.5228020  70.4345340  76.5115200  31.4348500
  70.0286340  77.7970320  30.7459500  60.9696640  72.4259630  29.8344970
  60.8753510  71.8080380  29.1095840  60.3894030  73.1525920  29.6074880
  63.7358080  70.9832870  26.8672360  63.2875380  71.0057130  26.0217910
  63.1023280  70.5851890  27.4642660  66.4781530  77.6103380  28.8722640
  66.5977740  77.0144520  29.6117480  67.3375530  77.6473070  28.4523940
  68.8169430  78.1640570  27.4485150  68.2904650  78.6883190  26.8450290
  69.1600770  78.7967960  28.0794880  61.2155820  75.5533940  13.8934860
  61.0144880  74.6901300  14.2548200  61.0447870  75.4667300  12.9556460
  63.2450300  74.1524730  30.1298460  63.8349990  73.8440580  30.8176280
  62.4270540  73.6804480  30.2858360  68.0643730  73.7690540  30.3631480
  67.3759250  73.1072080  30.2981470  68.7849750  73.3228810  30.8079940
  68.6944130  70.3642170  16.4221740  68.9746420  69.5210070  16.7781160
  67.9209860  70.5965280  16.9360490  60.0138620  72.6534560  13.8812740
  60.3164520  72.6601990  12.9731890  60.7533210  72.3032420  14.3780400
  63.2323550  71.5969180  14.8668940  62.8845550  70.9193170  14.2871390
  63.4336320  71.1358690  15.6812330  56.5729190  78.1256830  21.2633310
  55.9178030  77.8568470  20.6193010  57.4107140  78.0161310  20.8135290
  69.5219630  72.9198120  15.4851800  69.9404510  72.7329100  14.6448460
  69.2155690  72.0677170  15.7954730  57.6105120  78.5109400  25.8036650
  57.9778160  78.4236800  26.6832670  57.0415940  77.7475950  25.7043510
  57.1621120  75.4218490  29.7095070  56.2677170  75.3885250  30.0488780
  57.7018670  75.6205280  30.4746320  55.7867270  75.3355760  17.2058640
  54.8831350  75.5985960  17.0310300  56.2707890  75.6066930  16.4258600
  58.3294480  74.3921300  15.1153020  59.0386180  73.9704520  14.6300300
  57.6134420  74.4596530  14.4836370  57.9768640  70.4460630  14.1555670
  58.6996770  70.9869570  14.4736890  58.2493160  70.1724050  13.2797210
  57.6660830  69.6966820  24.0578290  58.3137020  69.1464200  23.6173450
  58.0862670  69.9509970  24.8794100  57.4192830  69.8522490  26.8003610
  57.0707650  70.3086310  27.5661790  57.0880530  68.9579620  26.8826040
  64.9317650  71.0434370  30.3223030  64.8706540  71.6356200  31.0718440
  65.8718030  70.9360330  30.1773290  67.5692210  70.7004430  29.9615320
  68.1832620  71.0183720  29.2996400  68.1141770  70.2153020  30.5811180
  58.0913470  69.3798690  30.0754380  58.6396460  69.1986740  29.3120490
  58.1568780  68.5892800  30.6110690  68.3100250  69.2636570  26.2884610
  67.4360090  69.5971680  26.0857540  68.2011000  68.7909750  27.1136480
  69.2172230  71.4707440  27.6726330  68.8885590  70.6559200  27.2928060
  70.1654530  71.4277250  27.5492020  66.0575070  70.1806410  25.2277520
  65.2746860  70.6551910  25.5074280  65.7638000  69.2761240  25.1190700
  70.6096140  70.8829510  23.2726610  71.0504230  70.8274610  22.4248210
  70.3403730  71.7987520  23.3436790  57.4015480  70.4853890  17.7491240
  58.1594840  70.5982770  17.1755270  56.9392650  71.3223090  17.7034670
  63.9429290  72.5993160  20.7393550  63.1303800  72.2250050  20.3989430
  64.4470930  71.8438240  21.0414740  68.4454270  69.2635610  21.9776620
  69.0483640  69.8355820  22.4525140  67.7047260  69.8275050  21.7550520
  59.7740630  71.0117940  16.2893210  60.3033390  70.2247740  16.1601160
  60.4068950  71.6909130  16.5228740  61.9678470  70.7493080  19.3438600
  61.3381210  70.0480390  19.5108730  61.4283610  71.5097210  19.1271760
  62.0934030  70.0277060  31.7791090  61.8118300  70.5310660  31.0151910
  62.4753730  69.2298810  31.4133220  68.6949490  69.4430640  32.3571560
  68.5814940  69.7625250  33.2523080  69.5119230  69.8443150  32.0608840
  67.6007640  77.4623110   2.7206300  67.5201690  76.5477720   2.4498010
  67.1872060  77.9590180   2.0146010  65.7325680  79.2402130   4.6015570
  64.9567780  78.7602570   4.8914140  66.3838610  78.5607780   4.4271730
  59.7491510  79.5521940   5.4791330  58.9176390  79.2970650   5.8787840
  60.3572490  79.6232710   6.2149250  56.1216470  77.1129480   5.1473420
  56.6932580  76.3451680   5.1477060  56.1218010  77.4118240   4.2380030
  57.3641340  72.5213840   6.9342350  57.1844180  71.6239590   7.2145110
  56.9621420  73.0685710   7.6089300  66.2039840  74.7229700   4.8354660
  66.5804660  73.8501580   4.7228330  66.1059350  75.0588400   3.9445100
  69.9863960  72.2180140   1.7683000  70.8073580  71.7276710   1.8108480
  70.0198040  72.8077800   2.5214840  57.9828010  75.0174340   5.5424690
  58.6638120  75.2812710   6.1612090  57.6676060  74.1775210   5.8762700
  62.1752580  76.0641700   4.6297280  62.6830800  76.5622670   5.2702300
  62.7065820  75.2876900   4.4536640  60.4588680  70.7040260   8.8960700
  60.4607120  71.2212650   8.0906600  59.6292990  70.2270440   8.8730630
  70.2225440  74.1580520   4.5410540  69.5181010  74.4465410   5.1213650
  70.5837600  74.9680630   4.1810100  60.1404010  72.4150220   6.9031150
  60.4820820  73.2592270   6.6085020  59.2019820  72.5633960   7.0196490
  63.8231900  69.9032490   3.2275740  64.1306880  69.3479380   2.5111240
  62.8932600  70.0376950   3.0448730  69.6836510  75.7086160   7.8836920
  69.2707690  76.5339870   8.1376910  68.9512460  75.1231200   7.6913280
  61.8169300  78.4946060   2.7455590  61.4126300  77.7823310   2.2501490
  61.9032420  78.1499300   3.6343630  60.5297920  75.2689270   6.5254630
  61.0812510  75.3784610   5.7507880  61.0441430  75.6426870   7.2409860
  60.2040650  78.7908630  10.1359970  60.0648420  79.6631430  10.5047370
  59.3222010  78.4481440   9.9907910  60.9837590  70.7326110   3.6285910
  60.5405740  71.5135650   3.2970430  61.5422580  71.0556000   4.3356850
  65.2707400  73.5994630   9.2321230  64.8086770  73.8077650  10.0441170
  64.8685510  72.7853980   8.9291900  70.2711910  74.8203580  10.3617890
  69.4205500  74.5209330  10.6826960  70.1113700  75.0645590   9.4501710
  67.3661620  76.3205330  12.4616680  67.6915030  75.4869080  12.1218910
  68.1541950  76.8433850  12.6095010  63.0213490  71.2773440   5.4875510
  63.3185820  72.1836270   5.4067530  63.5699050  70.7892220   4.8735080
  63.2151020  76.7545260  12.0227430  63.1194620  75.8139990  11.8727830
  64.0583000  76.9760330  11.6275500  58.3461560  73.1658930  10.1761210
  57.9524950  74.0134140  10.3833990  57.6579960  72.5285300  10.3669850
  64.9206610  73.2493900  13.2457950  64.2304930  73.0566100  13.8804040
  65.6638910  73.5328540  13.7782250  55.6478610  71.0887390   4.2091290
  55.3591660  71.6590250   4.9216270  56.3924370  70.6091840   4.5722520
  67.1969580  77.0892340   6.0811870  66.4650700  77.5979150   6.4301970
  66.7993920  76.2722320   5.7800650  63.6346970  73.7646540   4.4864360
  63.6383030  73.3236490   3.6368900  64.5298090  74.0863870   4.5936180
  59.4849350  73.6473030   3.4458570  59.1449400  74.1248260   4.2025620
  58.7226670  73.1938150   3.0859670  67.6595490  72.5426020   5.4934810
  67.6768230  72.9934670   6.3376660  67.4111070  71.6431660   5.7068250
  71.0866240  69.9558200  11.3321190  71.4112010  69.2247860  11.8579170
  71.1222750  69.6371840  10.4302180  63.9354940  77.8248320   6.2329770
  64.3025070  77.3506890   6.9791110  63.7460000  78.6989890   6.5738110
  56.7995430  72.5692010   2.3623240  56.5142350  72.2047680   3.2001860
  56.7374290  71.8372470   1.7486380  61.7254310  76.8656960   8.5513980
  61.4211380  77.7448940   8.7764340  62.6800770  76.9256750   8.5871420
  57.7818040  77.7059700   9.6985340  57.4232980  78.3713550  10.2858680
  57.4872600  76.8743250  10.0697960  60.9831160  78.1643940  12.5824890
  60.6831300  78.3101120  11.6852710  61.7542400  77.6049230  12.4898280
  56.3566610  71.1952940  10.3757440  55.6425130  71.3949860  10.9810050
  56.7761650  70.4192510  10.7472240  67.8505390  73.6875250   8.1258890
  68.2186210  72.8670460   8.4538460  66.9903590  73.7477140   8.5414540
  64.8107380  76.3414840   8.3496860  65.3092630  76.8160660   9.0148710
  64.9530330  75.4178360   8.5566890  70.3096250  77.8015980   2.6386610
  69.3686390  77.8166210   2.8134300  70.6240320  77.0151940   3.0846910
  56.5095450  78.7375570  12.1179630  57.0134470  78.1582850  12.6895860
  55.7702870  79.0215800  12.6556000  58.5418530  76.8805160  13.0129700
  58.5823870  76.5819030  13.9214930  59.3964030  77.2812770  12.8537220
  60.4824340  75.4597260  10.9804190  59.9520800  74.9688210  10.3527530
  61.1512410  75.8881460  10.4462120  69.8524570  77.2662880  12.7484530
  70.4345340  76.5115200  12.6605010  70.0286340  77.7970320  11.9716010
  60.9696640  72.4259630  11.0601480  60.8753510  71.8080380  10.3352350
  60.3894030  73.1525920  10.8331390  63.7358080  70.9832870   8.0928870
  63.2875380  71.0057130   7.2474420  63.1023280  70.5851890   8.6899170
  66.4781530  77.6103380  10.0979150  66.5977740  77.0144520  10.8373990
  67.3375530  77.6473070   9.6780450  68.8169430  78.1640570   8.6741660
  68.2904650  78.6883190   8.0706800  69.1600770  78.7967960   9.3051390
  63.2450300  74.1524730  11.3554970  63.8349990  73.8440580  12.0432790
  62.4270540  73.6804480  11.5114870  68.0643730  73.7690540  11.5887990
  67.3759250  73.1072080  11.5237980  68.7849750  73.3228810  12.0336450
  56.5729190  78.1256830   2.4889820  55.9178030  77.8568470   1.8449520
  57.4107140  78.0161310   2.0391800  57.6105120  78.5109400   7.0293160
  57.9778160  78.4236800   7.9089180  57.0415940  77.7475950   6.9300020
  57.1621120  75.4218490  10.9351580  56.2677170  75.3885250  11.2745290
  57.7018670  75.6205280  11.7002830  57.6660830  69.6966820   5.2834800
  58.3137020  69.1464200   4.8429960  58.0862670  69.9509970   6.1050610
  57.4192830  69.8522490   8.0260120  57.0707650  70.3086310   8.7918300
  57.0880530  68.9579620   8.1082550  64.9317650  71.0434370  11.5479540
  64.8706540  71.6356200  12.2974950  65.8718030  70.9360330  11.4029800
  67.5692210  70.7004430  11.1871830  68.1832620  71.0183720  10.5252910
  68.1141770  70.2153020  11.8067690  58.0913470  69.3798690  11.3010890
  58.6396460  69.1986740  10.5377000  58.1568780  68.5892800  11.8367200
  68.3100250  69.2636570   7.5141120  67.4360090  69.5971680   7.3114050
  68.2011000  68.7909750   8.3392990  69.2172230  71.4707440   8.8982840
  68.8885590  70.6559200   8.5184570  70.1654530  71.4277250   8.7748530
  66.0575070  70.1806410   6.4534030  65.2746860  70.6551910   6.7330790
  65.7638000  69.2761240   6.3447210  70.6096140  70.8829510   4.4983120
  71.0504230  70.8274610   3.6504720  70.3403730  71.7987520   4.5693300
  68.4454270  69.2635610   3.2033130  69.0483640  69.8355820   3.6781650
  67.7047260  69.8275050   2.9807030  62.0934030  70.0277060  13.0047600
  61.8118300  70.5310660  12.2408420  62.4753730  69.2298810  12.6389730
  68.6949490  69.4430640  13.5828070  68.5814940  69.7625250  14.4779590
  69.5119230  69.8443150  13.2865350  67.6007640  58.6879620  59.0436770
  67.5201690  57.7734230  58.7728480  67.1872060  59.1846690  58.3376480
  65.7325680  60.4658640  60.9246040  64.9567780  59.9859080  61.2144610
  66.3838610  59.7864290  60.7502200  59.7491510  60.7778450  61.8021800
  58.9176390  60.5227160  62.2018310  60.3572490  60.8489220  62.5379720
  69.7533110  64.8718830  59.7045170  69.2914640  64.1006070  60.0332340
  70.5658660  64.8984900  60.2097620  59.7292770  64.8118540  61.9979820
  60.0320810  63.9216280  61.8190040  60.4736360  65.3688760  61.7702070
  58.1583460  55.7380340  55.5864190  57.2700160  56.0796310  55.4844070
  58.4424650  55.5380660  54.6945020  56.1216470  58.3385990  61.4703890
  56.6932580  57.5708190  61.4707530  56.1218010  58.6374750  60.5610500
  65.9796420  67.1576840  59.3249160  65.3607860  67.6134340  58.7543600
  66.8348200  67.3128300  58.9238860  65.1734670  63.1415830  60.9316200
  65.1042950  62.2005770  60.7705330  65.9354530  63.2317240  61.5038770
  66.2039840  55.9486210  61.1585130  66.5804660  55.0758090  61.0458800
  66.1059350  56.2844910  60.2675570  60.3344850  54.3211840  56.6202570
  60.4411600  55.2215570  56.9271330  59.4237210  54.2729810  56.3297220
  69.9863960  53.4436650  58.0913470  70.8073580  52.9533220  58.1338950
  70.0198040  54.0334310  58.8445310  57.9828010  56.2430850  61.8655160
  58.6638120  56.5069220  62.4842560  57.6676060  55.4031720  62.1993170
  62.1752580  57.2898210  60.9527750  62.6830800  57.7879180  61.5932770
  62.7065820  56.5133410  60.7767110  66.8459770  62.0416080  56.7181070
  66.2277040  62.5065530  56.1543790  67.3583020  62.7343560  57.1350580
  70.2225440  55.3837030  60.8641010  69.5181010  55.6721920  61.4444120
  70.5837600  56.1937140  60.5040570  56.2142970  62.7272610  54.0920700
  55.8370950  63.2159710  53.3605600  56.4716040  63.3997890  54.7227230
  63.8231900  51.1289000  59.5506210  64.1306880  50.5735890  58.8341710
  62.8932600  51.2633460  59.3679200  69.3746960  66.8456290  61.8413670
  69.3874120  66.4418580  60.9735930  68.8222180  67.6203580  61.7375100
  70.6692380  63.5672510  56.9303840  70.5588710  62.6246840  57.0553260
  70.6660630  63.9288150  57.8166600  66.2112660  59.1937830  56.2866330
  65.2841940  59.1275210  56.5154800  66.3637480  60.1317960  56.1721570
  66.1981740  55.4654830  53.2833490  65.2585410  55.6268790  53.3685950
  66.5165000  56.1840510  52.7369480  70.2409950  60.7558130  56.7901580
  69.6222370  60.4177680  56.1427880  70.2234400  60.1117890  57.4980770
  61.8169300  59.7202570  59.0686060  61.4126300  59.0079820  58.5731960
  61.9032420  59.3755810  59.9574100  62.2851000  63.4070130  61.2325270
  61.9879290  62.8015600  60.5533050  63.2350820  63.4447440  61.1214630
  68.4174650  59.9944940  53.7974330  68.8567930  59.1567370  53.6512150
  69.1303070  60.6274340  53.8838470  66.5270030  64.9341010  57.7655570
  66.9665940  65.6765340  57.3510960  66.4656920  65.1767580  58.6894530
  58.5173930  58.6147550  56.5692710  58.3971530  59.3409640  55.9573980
  58.2074820  57.8450460  56.0920620  56.1559300  61.7862690  62.3761350
  56.2339720  61.9211460  61.4317070  56.7700980  61.0778580  62.5689470
  57.4006930  63.4862880  58.7867530  56.9935010  63.6277470  57.9321130
  58.2919940  63.2023040  58.5838740  69.1940210  67.9210130  55.1218580
  69.0341350  67.6313070  56.0200410  69.0286920  67.1450260  54.5863810
  61.6728590  67.7008660  56.8990200  61.4971070  66.7844200  56.6858000
  60.8184330  68.0595950  57.1388000  68.8966340  65.4297690  53.6816580
  68.2031500  65.4274980  53.0218860  69.6389200  65.0057010  53.2510750
  68.4616270  67.0560400  57.7565070  68.9173220  66.2749780  58.0703690
  68.8008790  67.7667220  58.3006250  60.9837590  51.9582620  59.9516380
  60.5405740  52.7392160  59.6200900  61.5422580  52.2812510  60.6587320
  64.0996410  51.5793320  54.8322210  63.4750590  51.5753190  55.5575520
  64.0126530  50.7124280  54.4358180  63.0213490  52.5029950  61.8105980
  63.3185820  53.4092780  61.7298000  63.5699050  52.0148730  61.1965550
  60.7751810  57.0816190  57.6797630  60.5492730  56.8653360  58.5844250
  59.9944340  57.5144650  57.3343600  68.0049570  57.0879560  56.2788280
  67.4058460  57.8115360  56.0951900  68.5529180  57.0256340  55.4964730
  66.6114440  55.7243100  58.3091560  67.0044010  56.0415300  57.4960250
  66.9731290  54.8454980  58.4236080  55.6478610  52.3143900  60.5321760
  55.3591660  52.8846760  61.2446740  56.3924370  51.8348350  60.8952990
  67.1969580  58.3148850  62.4042340  66.4650700  58.8235660  62.7532440
  66.7993920  57.4978830  62.1031120  63.6346970  54.9903050  60.8094830
  63.6383030  54.5493000  59.9599370  64.5298090  55.3120380  60.9166650
  59.4849350  54.8729540  59.7689040  59.1449400  55.3504770  60.5256090
  58.7226670  54.4194660  59.4090140  63.6967120  55.9915130  53.8001590
  63.8179940  55.9501610  54.7487410  63.3115630  56.8539280  53.6448320
  67.6595490  53.7682530  61.8165280  67.6768230  54.2191180  62.6607130
  67.4111070  52.8688170  62.0298720  62.7088620  58.3016270  53.1984890
  62.1405520  57.8534520  52.5720800  63.4177620  58.6609050  52.6650040
  56.7995430  53.7948520  58.6853710  56.5142350  53.4304190  59.5232330
  56.7374290  53.0628980  58.0716850  60.2536100  62.2974460  55.4711300
  59.4798360  61.7572080  55.3110020  60.9830730  61.7781070  55.1329060
  66.4734020  52.6877780  55.4067080  65.6598630  52.1890950  55.3312390
  66.2795970  53.5276030  54.9903430  69.1882410  57.0597430  53.7029240
  70.0762030  57.3714660  53.5280580  69.1587500  56.1869680  53.3109820
  60.2973500  61.9654840  59.1090110  60.8152170  61.1623100  59.0547000
  59.8457520  61.9033980  59.9506940  65.1843000  63.2321120  54.3817410
  65.5258700  63.9763350  53.8860730  64.3555710  63.5452240  54.7442240
  68.0670410  62.5536960  59.7462920  68.4194230  61.9565090  59.0864290
  67.1832740  62.2281190  59.9171170  64.1533690  63.3134650  57.1533330
  64.8404820  63.8603860  57.5340920  63.3666110  63.8575380  57.1882940
  56.2926090  58.9307470  52.6450410  57.1620940  59.2132270  52.9286330
  55.8016410  59.7443340  52.5299220  63.4560900  60.3180680  56.7658690
  63.9123680  61.1285930  56.9918880  63.1049110  60.0003820  57.5977180
  59.3572680  50.6618330  57.2381210  59.2287310  50.6536230  58.1866130
  58.5334700  51.0001420  56.8872220  67.0325590  63.8319370  62.7128440
  67.6747820  63.1312530  62.8260610  67.5574940  64.6117810  62.5325330
  70.8781310  64.1167990  52.4367580  70.6518890  63.3998430  53.0292220
  70.4877510  63.8680430  51.5989330  56.6597340  68.1434850  53.2112040
  57.0194980  68.7424190  52.5569310  56.5189680  68.6894740  53.9847070
  70.4597560  62.0339930  54.0981740  70.1719260  62.4952620  54.8859620
  71.2549730  61.5737700  54.3665960  62.6765960  65.5266050  54.0285710
  62.6676060  66.2595740  53.4130220  61.7564320  65.2797630  54.1212670
  58.2772600  60.7480940  54.7732470  57.6700550  61.4879840  54.7827770
  58.7521950  60.8380300  53.9470670  71.2167420  53.8688700  55.2576920
  70.5880580  53.9734370  54.5435150  70.7219340  54.0885480  56.0470800
  65.6625560  65.5894290  52.6910900  65.7637540  65.3858280  51.7612880
  64.7627300  65.3352570  52.8958680  63.1851450  56.1474650  56.6734800
  62.4767600  56.6160990  57.1148410  63.4695930  55.4896660  57.3079990
  67.2166880  52.8725310  58.1130590  67.0934660  52.8911440  57.1640100
  68.1651440  52.9204250  58.2328990  64.3043670  68.1080610  57.3858570
  64.5585170  68.0702000  56.4637940  63.3556150  67.9813940  57.3786820
  61.3886470  54.4559730  54.0485510  62.2377000  54.8929880  53.9825700
  61.0217740  54.7679990  54.8757570  70.3096250  59.0272490  58.9617080
  69.3686390  59.0422720  59.1364770  70.6240320  58.2408450  59.4077380
  60.2877890  60.7092090  52.5221040  61.0541160  60.5973450  53.0846470
  60.3652580  60.0130060  51.8697810  58.9824650  58.1417160  53.2053930
  59.0628240  57.1944670  53.3171330  59.8744400  58.4724040  53.3114590
  59.7839360  68.2912550  60.3088470  60.5201840  67.7428010  60.5797040
  60.1680280  69.1568560  60.1694460  56.6684840  64.3586120  56.1829980
  55.7424620  64.6007260  56.1735390  57.1341270  65.1860380  56.0614730
  62.8941670  67.4642860  52.1314040  63.6870280  67.7531690  51.6795830
  62.3746020  67.0335030  51.4526520  63.4119070  62.6846270  51.9956390
  63.3069710  62.0698620  52.7217770  63.2443290  62.1612160  51.2119400
  66.6521800  61.7466300  52.5998380  66.1031900  62.1935600  53.2441120
  67.2741060  61.2415550  53.1236050  62.3196920  60.7057220  54.4963680
  62.7413340  60.5397090  55.3395070  62.4447760  59.8957450  54.0018820
  64.8324560  59.7294830  51.7440780  65.3530220  59.0143850  51.3781930
  65.4792960  60.3680700  52.0441290  61.2155820  56.7790450  51.4421840
  61.0144880  55.9157810  51.8035180  61.0447870  56.6923810  50.5043440
  68.6944130  51.5898680  53.9708720  68.9746420  50.7466580  54.3268140
  67.9209860  51.8221790  54.4847470  60.0138620  53.8791070  51.4299720
  60.3164520  53.8858500  50.5218870  60.7533210  53.5288930  51.9267380
  63.2323550  52.8225690  52.4155920  62.8845550  52.1449680  51.8358370
  63.4336320  52.3615200  53.2299310  65.3972590  67.8106440  54.0342520
  66.2923380  68.1491410  54.0561280  65.4290220  67.0885850  53.4066800
  59.0368750  63.1833490  52.2629520  59.4743620  63.7263160  52.9187100
  59.5216480  62.3580440  52.2725860  56.2514550  65.9722520  59.7149780
  56.5817560  65.1043580  59.4828420  56.6805550  66.1781040  60.5454740
  60.8476470  64.3031530  57.3751750  60.5472010  64.1796500  58.2755660
  60.7413960  63.4440120  56.9667480  56.5729190  59.3513340  58.8120290
  55.9178030  59.0824980  58.1679990  57.4107140  59.2417820  58.3622270
  69.5219630  54.1454630  53.0338780  69.9404510  53.9585610  52.1935440
  69.2155690  53.2933680  53.3441710  55.7867270  56.5612270  54.7545620
  54.8831350  56.8242470  54.5797280  56.2707890  56.8323440  53.9745580
  58.3294480  55.6177810  52.6640000  59.0386180  55.1961030  52.1787280
  57.6134420  55.6853040  52.0323350  57.9768640  51.6717140  51.7042650
  58.6996770  52.2126080  52.0223870  58.2493160  51.3980560  50.8284190
  57.6660830  50.9223330  61.6065270  58.3137020  50.3720710  61.1660430
  58.0862670  51.1766480  62.4281080  71.1194630  67.8180690  58.3653150
  71.7153700  67.4965260  57.6887570  71.3772780  67.3452510  59.1566420
  71.6706840  68.4675990  62.1950880  71.2109810  69.2191800  61.8208900
  71.0419300  67.7482460  62.1365680  62.1002560  66.7764230  61.3699010
  62.6167580  66.1651590  60.8447270  62.7499940  67.2793010  61.8610020
  64.8398060  67.6672720  62.1967990  65.1275870  67.4127020  61.3201000
  65.3521280  67.1150080  62.7873560  66.0575070  51.4062920  62.7764500
  65.2746860  51.8808420  63.0561260  65.7638000  50.5017750  62.6677680
  70.6096140  52.1086020  60.8213590  71.0504230  52.0531120  59.9735190
  70.3403730  53.0244030  60.8923770  56.7787460  67.8793620  57.7946360
  56.6109500  67.2464300  58.4928250  55.9121970  68.0853020  57.4440550
  57.4015480  51.7110400  55.2978220  58.1594840  51.8239280  54.7242250
  56.9392650  52.5479600  55.2521650  63.9429290  53.8249670  58.2880530
  63.1303800  53.4506560  57.9476410  64.4470930  53.0694750  58.5901720
  68.4454270  50.4892120  59.5263600  69.0483640  51.0612330  60.0012120
  67.7047260  51.0531560  59.3037500  58.3850160  66.5726850  55.2396500
  57.8597780  66.9534880  54.5358460  58.3094740  67.1977620  55.9606210
  59.7740630  52.2374450  53.8380190  60.3033390  51.4504250  53.7088140
  60.4068950  52.9165640  54.0715720  61.9678470  51.9749590  56.8925580
  61.3381210  51.2736900  57.0595710  61.4283610  52.7353720  56.6758740
  60.9843130  68.5209230  54.1145750  61.7161950  68.2368510  53.5669640
  61.2436800  68.2822510  55.0045130  60.1457920  64.6373960  54.1192080
  59.5166800  65.1059060  54.6677910  60.2605750  63.7923180  54.5538270
  67.6007640  58.6879620  40.2693280  67.5201690  57.7734230  39.9984990
  67.1872060  59.1846690  39.5632990  65.7325680  60.4658640  42.1502550
  64.9567780  59.9859080  42.4401120  66.3838610  59.7864290  41.9758710
  59.7491510  60.7778450  43.0278310  58.9176390  60.5227160  43.4274820
  60.3572490  60.8489220  43.7636230  69.7533110  64.8718830  40.9301680
  69.2914640  64.1006070  41.2588850  70.5658660  64.8984900  41.4354130
  59.7292770  64.8118540  43.2236330  60.0320810  63.9216280  43.0446550
  60.4736360  65.3688760  42.9958580  56.1216470  58.3385990  42.6960400
  56.6932580  57.5708190  42.6964040  56.1218010  58.6374750  41.7867010
  65.9796420  67.1576840  40.5505670  65.3607860  67.6134340  39.9800110
  66.8348200  67.3128300  40.1495370  65.1734670  63.1415830  42.1572710
  65.1042950  62.2005770  41.9961840  65.9354530  63.2317240  42.7295280
  57.3641340  53.7470350  44.4829330  57.1844180  52.8496100  44.7632090
  56.9621420  54.2942220  45.1576280  66.2039840  55.9486210  42.3841640
  66.5804660  55.0758090  42.2715310  66.1059350  56.2844910  41.4932080
  60.3344850  54.3211840  37.8459080  60.4411600  55.2215570  38.1527840
  59.4237210  54.2729810  37.5553730  69.9863960  53.4436650  39.3169980
  70.8073580  52.9533220  39.3595460  70.0198040  54.0334310  40.0701820
  57.9828010  56.2430850  43.0911670  58.6638120  56.5069220  43.7099070
  57.6676060  55.4031720  43.4249680  62.1752580  57.2898210  42.1784260
  62.6830800  57.7879180  42.8189280  62.7065820  56.5133410  42.0023620
  60.4588680  51.9296770  46.4447680  60.4607120  52.4469160  45.6393580
  59.6292990  51.4526950  46.4217610  66.8459770  62.0416080  37.9437580
  66.2277040  62.5065530  37.3800300  67.3583020  62.7343560  38.3607090
  61.7091530  61.5691950  44.6221180  61.3760910  62.1960870  45.2642250
  61.8858210  62.0953830  43.8422850  70.2225440  55.3837030  42.0897520
  69.5181010  55.6721920  42.6700630  70.5837600  56.1937140  41.7297080
  60.1404010  53.6406730  44.4518130  60.4820820  54.4848780  44.1572000
  59.2019820  53.7890470  44.5683470  60.9210630  63.5372750  46.4370360
  61.5384630  64.2123830  46.1554810  60.0603750  63.9460730  46.3457860
  56.2142970  62.7272610  35.3177210  55.8370950  63.2159710  34.5862110
  56.4716040  63.3997890  35.9483740  63.8231900  51.1289000  40.7762720
  64.1306880  50.5735890  40.0598220  62.8932600  51.2633460  40.5935710
  69.3746960  66.8456290  43.0670180  69.3874120  66.4418580  42.1992440
  68.8222180  67.6203580  42.9631610  70.6692380  63.5672510  38.1560350
  70.5588710  62.6246840  38.2809770  70.6660630  63.9288150  39.0423110
  68.7732400  61.7486130  44.3952790  69.1901190  61.5346240  43.5606250
  69.4972220  62.0058920  44.9661410  66.2112660  59.1937830  37.5122840
  65.2841940  59.1275210  37.7411310  66.3637480  60.1317960  37.3978080
  66.1981740  55.4654830  34.5090000  65.2585410  55.6268790  34.5942460
  66.5165000  56.1840510  33.9625990  70.2409950  60.7558130  38.0158090
  69.6222370  60.4177680  37.3684390  70.2234400  60.1117890  38.7237280
  69.6836510  56.9342670  45.4323900  69.2707690  57.7596380  45.6863890
  68.9512460  56.3487710  45.2400260  61.8169300  59.7202570  40.2942570
  61.4126300  59.0079820  39.7988470  61.9032420  59.3755810  41.1830610
  62.2851000  63.4070130  42.4581780  61.9879290  62.8015600  41.7789560
  63.2350820  63.4447440  42.3471140  60.5297920  56.4945780  44.0741610
  61.0812510  56.6041120  43.2994860  61.0441430  56.8683380  44.7896840
  70.3736610  66.9802000  46.1204880  69.8967170  67.7874190  45.9277490
  69.6898400  66.3280330  46.2731090  61.3769430  63.1451820  49.1089580
  60.4797960  63.3691790  49.3562980  61.4022300  63.2686760  48.1600980
  68.4174650  59.9944940  35.0230840  68.8567930  59.1567370  34.8768660
  69.1303070  60.6274340  35.1094980  60.2040650  60.0165140  47.6846950
  60.0648420  60.8887940  48.0534350  59.3222010  59.6737950  47.5394890
  66.5270030  64.9341010  38.9912080  66.9665940  65.6765340  38.5767470
  66.4656920  65.1767580  39.9151040  62.0021000  65.9586840  49.8932100
  61.9736430  66.3629790  49.0260530  61.8385970  65.0297200  49.7303700
  56.1559300  61.7862690  43.6017860  56.2339720  61.9211460  42.6573580
  56.7700980  61.0778580  43.7945980  57.4006930  63.4862880  40.0124040
  56.9935010  63.6277470  39.1577640  58.2919940  63.2023040  39.8095250
  67.2185810  67.6354790  46.9191090  67.7330480  67.5462800  47.7213520
  66.3754890  67.9814490  47.2119000  69.1940210  67.9210130  36.3475090
  69.0341350  67.6313070  37.2456920  69.0286920  67.1450260  35.8120320
  61.6728590  67.7008660  38.1246710  61.4971070  66.7844200  37.9114510
  60.8184330  68.0595950  38.3644510  68.8966340  65.4297690  34.9073090
  68.2031500  65.4274980  34.2475370  69.6389200  65.0057010  34.4767260
  68.4616270  67.0560400  38.9821580  68.9173220  66.2749780  39.2960200
  68.8008790  67.7667220  39.5262760  56.2118820  62.8276860  46.1412320
  56.3749860  62.3582220  45.3231690  56.6771270  62.3200420  46.8061160
  60.9837590  51.9582620  41.1772890  60.5405740  52.7392160  40.8457410
  61.5422580  52.2812510  41.8843830  65.2707400  54.8251140  46.7808210
  64.8086770  55.0334160  47.5928150  64.8685510  54.0110490  46.4778880
  70.2711910  56.0460090  47.9104870  69.4205500  55.7465840  48.2313940
  70.1113700  56.2902100  46.9988690  67.3661620  57.5461840  50.0103660
  67.6915030  56.7125590  49.6705890  68.1541950  58.0690360  50.1581990
  64.0996410  51.5793320  36.0578720  63.4750590  51.5753190  36.7832030
  64.0126530  50.7124280  35.6614690  63.0213490  52.5029950  43.0362490
  63.3185820  53.4092780  42.9554510  63.5699050  52.0148730  42.4222060
  60.7751810  57.0816190  38.9054140  60.5492730  56.8653360  39.8100760
  59.9944340  57.5144650  38.5600110  68.0049570  57.0879560  37.5044790
  67.4058460  57.8115360  37.3208410  68.5529180  57.0256340  36.7221240
  63.2151020  57.9801770  49.5714410  63.1194620  57.0396500  49.4214810
  64.0583000  58.2016840  49.1762480  66.6114440  55.7243100  39.5348070
  67.0044010  56.0415300  38.7216760  66.9731290  54.8454980  39.6492590
  58.3461560  54.3915440  47.7248190  57.9524950  55.2390650  47.9320970
  57.6579960  53.7541810  47.9156830  64.9206610  54.4750410  50.7944930
  64.2304930  54.2822610  51.4291020  65.6638910  54.7585050  51.3269230
  67.1969580  58.3148850  43.6298850  66.4650700  58.8235660  43.9788950
  66.7993920  57.4978830  43.3287630  63.6346970  54.9903050  42.0351340
  63.6383030  54.5493000  41.1855880  64.5298090  55.3120380  42.1423160
  59.4849350  54.8729540  40.9945550  59.1449400  55.3504770  41.7512600
  58.7226670  54.4194660  40.6346650  63.6967120  55.9915130  35.0258100
  63.8179940  55.9501610  35.9743920  63.3115630  56.8539280  34.8704830
  67.6595490  53.7682530  43.0421790  67.6768230  54.2191180  43.8863640
  67.4111070  52.8688170  43.2555230  62.7088620  58.3016270  34.4241400
  62.1405520  57.8534520  33.7977310  63.4177620  58.6609050  33.8906550
  71.0866240  51.1814710  48.8808170  71.4112010  50.4504370  49.4066150
  71.1222750  50.8628350  47.9789160  57.7857800  62.2028290  48.3008130
  57.4012590  61.5621960  48.8991090  58.0969990  62.9064410  48.8702860
  63.9354940  59.0504830  43.7816750  64.3025070  58.5763400  44.5278090
  63.7460000  59.9246400  44.1225090  61.7254310  58.0913470  46.1000960
  61.4211380  58.9705450  46.3251320  62.6800770  58.1513260  46.1358400
  60.2536100  62.2974460  36.6967810  59.4798360  61.7572080  36.5366530
  60.9830730  61.7781070  36.3585570  66.4734020  52.6877780  36.6323590
  65.6598630  52.1890950  36.5568900  66.2795970  53.5276030  36.2159940
  66.3942880  61.3648880  48.3763200  66.3280190  60.4444550  48.1220790
  65.7648020  61.4624320  49.0907840  69.1882410  57.0597430  34.9285750
  70.0762030  57.3714660  34.7537090  69.1587500  56.1869680  34.5366330
  60.2973500  61.9654840  40.3346620  60.8152170  61.1623100  40.2803510
  59.8457520  61.9033980  41.1763450  65.1843000  63.2321120  35.6073920
  65.5258700  63.9763350  35.1117240  64.3555710  63.5452240  35.9698750
  57.7818040  58.9316210  47.2472320  57.4232980  59.5970060  47.8345660
  57.4872600  58.0999760  47.6184940  60.9831160  59.3900450  50.1311870
  60.6831300  59.5357630  49.2339690  61.7542400  58.8305740  50.0385260
  66.3259610  64.1869450  48.1267000  66.3404150  63.2550410  47.9085910
  65.6184710  64.2729210  48.7656770  68.0670410  62.5536960  40.9719430
  68.4194230  61.9565090  40.3120800  67.1832740  62.2281190  41.1427680
  64.1533690  63.3134650  38.3789840  64.8404820  63.8603860  38.7597430
  63.3666110  63.8575380  38.4139450  63.4560900  60.3180680  37.9915200
  63.9123680  61.1285930  38.2175390  63.1049110  60.0003820  38.8233690
  65.7593510  65.8287020  45.2207500  66.4035730  66.0346400  45.8980920
  66.1222950  65.0675420  44.7678350  67.0325590  63.8319370  43.9384950
  67.6747820  63.1312530  44.0517120  67.5574940  64.6117810  43.7581840
  70.8781310  64.1167990  33.6624090  70.6518890  63.3998430  34.2548730
  70.4877510  63.8680430  32.8245840  68.8063210  64.6314270  47.1421010
  69.1419450  65.2180960  47.8198930  67.8863550  64.5006980  47.3718800
  56.6597340  68.1434850  34.4368550  57.0194980  68.7424190  33.7825820
  56.5189680  68.6894740  35.2103580  70.4597560  62.0339930  35.3238250
  70.1719260  62.4952620  36.1116130  71.2549730  61.5737700  35.5922470
  56.6439200  66.4089710  48.9110950  56.7530320  65.4684450  48.7706340
  55.9919760  66.6744460  48.2624680  64.6351790  64.6805600  50.3109070
  64.3148660  63.9614840  50.8554760  63.9610150  65.3560670  50.3845130
  62.6765960  65.5266050  35.2542220  62.6676060  66.2595740  34.6386730
  61.7564320  65.2797630  35.3469180  58.2772600  60.7480940  35.9988980
  57.6700550  61.4879840  36.0084280  58.7521950  60.8380300  35.1727180
  67.8505390  54.9131760  45.6745870  68.2186210  54.0926970  46.0025440
  66.9903590  54.9733650  46.0901520  71.2167420  53.8688700  36.4833430
  70.5880580  53.9734370  35.7691660  70.7219340  54.0885480  37.2727310
  65.6625560  65.5894290  33.9167410  65.7637540  65.3858280  32.9869390
  64.7627300  65.3352570  34.1215190  63.1851450  56.1474650  37.8991310
  62.4767600  56.6160990  38.3404920  63.4695930  55.4896660  38.5336500
  64.8107380  57.5671350  45.8983840  65.3092630  58.0417170  46.5635690
  64.9530330  56.6434870  46.1053870  67.2166880  52.8725310  39.3387100
  67.0934660  52.8911440  38.3896610  68.1651440  52.9204250  39.4585500
  64.3043670  68.1080610  38.6115080  64.5585170  68.0702000  37.6894450
  63.3556150  67.9813940  38.6043330  61.3886470  54.4559730  35.2742020
  62.2377000  54.8929880  35.2082210  61.0217740  54.7679990  36.1014080
  70.3096250  59.0272490  40.1873590  69.3686390  59.0422720  40.3621280
  70.6240320  58.2408450  40.6333890  60.2877890  60.7092090  33.7477550
  61.0541160  60.5973450  34.3102980  60.3652580  60.0130060  33.0954320
  58.9824650  58.1417160  34.4310440  59.0628240  57.1944670  34.5427840
  59.8744400  58.4724040  34.5371100  59.7839360  68.2912550  41.5344980
  60.5201840  67.7428010  41.8053550  60.1680280  69.1568560  41.3950970
  56.6684840  64.3586120  37.4086490  55.7424620  64.6007260  37.3991900
  57.1341270  65.1860380  37.2871240  58.7897640  67.4758620  50.7230560
  59.5910370  67.7970670  51.1365960  58.2749460  67.1154200  51.4450470
  62.8941670  67.4642860  33.3570550  63.6870280  67.7531690  32.9052340
  62.3746020  67.0335030  32.6783030  67.6262270  63.5838490  50.6705970
  67.0200430  63.6070090  49.9301720  67.3216380  62.8521530  51.2073220
  69.0562640  67.3118780  49.2815380  70.0084390  67.2276800  49.2315620
  68.9090860  67.9760490  49.9549170  56.5095450  59.9632080  49.6666610
  57.0134470  59.3839360  50.2382840  55.7702870  60.2472310  50.2042980
  63.4119070  62.6846270  33.2212900  63.3069710  62.0698620  33.9474280
  63.2443290  62.1612160  32.4375910  63.5633390  61.3703070  49.2002130
  62.7979060  61.9388070  49.1156800  63.7449350  61.0779280  48.3070360
  66.6521800  61.7466300  33.8254890  66.1031900  62.1935600  34.4697630
  67.2741060  61.2415550  34.3492560  70.7056740  63.1008400  49.7577150
  71.4466210  63.4384160  49.2544610  69.9429420  63.2700460  49.2046920
  58.5418530  58.1061670  50.5616680  58.5823870  57.8075540  51.4701910
  59.3964030  58.5069280  50.4024200  62.3196920  60.7057220  35.7220190
  62.7413340  60.5397090  36.5651580  62.4447760  59.8957450  35.2275330
  60.4824340  56.6853770  48.5291170  59.9520800  56.1944720  47.9014510
  61.1512410  57.1137970  47.9949100  64.8324560  59.7294830  32.9697290
  65.3530220  59.0143850  32.6038440  65.4792960  60.3680700  33.2697800
  69.3802400  61.1523230  48.2932360  69.7943420  61.3068310  49.1422780
  68.4453400  61.2778450  48.4558140  69.8524570  58.4919390  50.2971510
  70.4345340  57.7371710  50.2091990  70.0286340  59.0226830  49.5202990
  60.9696640  53.6516140  48.6088460  60.8753510  53.0336890  47.8839330
  60.3894030  54.3782430  48.3818370  63.7358080  52.2089380  45.6415850
  63.2875380  52.2313640  44.7961400  63.1023280  51.8108400  46.2386150
  64.1417630  61.1043710  46.2628290  64.5605740  61.9476440  46.0904530
  63.2226260  61.2415750  46.0335070  66.4781530  58.8359890  47.6466130
  66.5977740  58.2401030  48.3860970  67.3375530  58.8729580  47.2267430
  68.8169430  59.3897080  46.2228640  68.2904650  59.9139700  45.6193780
  69.1600770  60.0224470  46.8538370  61.2155820  56.7790450  32.6678350
  61.0144880  55.9157810  33.0291690  61.0447870  56.6923810  31.7299950
  61.9925050  67.4096720  47.3786020  61.4546140  68.1342780  47.0594720
  62.2459010  66.9327060  46.5883360  63.2450300  55.3781240  48.9041950
  63.8349990  55.0697090  49.5919770  62.4270540  54.9060990  49.0601850
  68.0643730  54.9947050  49.1374970  67.3759250  54.3328590  49.0724960
  68.7849750  54.5485320  49.5823430  68.6944130  51.5898680  35.1965230
  68.9746420  50.7466580  35.5524650  67.9209860  51.8221790  35.7103980
  60.0138620  53.8791070  32.6556230  60.3164520  53.8858500  31.7475380
  60.7533210  53.5288930  33.1523890  64.8487260  68.6447930  47.6372670
  64.7745960  69.5483070  47.9445040  63.9466100  68.3259830  47.6094740
  63.2323550  52.8225690  33.6412430  62.8845550  52.1449680  33.0614880
  63.4336320  52.3615200  34.4555820  65.3972590  67.8106440  35.2599030
  66.2923380  68.1491410  35.2817790  65.4290220  67.0885850  34.6323310
  59.0368750  63.1833490  33.4886030  59.4743620  63.7263160  34.1443610
  59.5216480  62.3580440  33.4982370  56.2514550  65.9722520  40.9406290
  56.5817560  65.1043580  40.7084930  56.6805550  66.1781040  41.7711250
  60.8476470  64.3031530  38.6008260  60.5472010  64.1796500  39.5012170
  60.7413960  63.4440120  38.1923990  56.7404760  66.8393110  43.6787920
  56.3035750  67.0193910  44.5112070  57.3082440  67.5967730  43.5369640
  71.0618580  63.0662090  46.0641390  70.2478420  63.4959250  46.3267180
  71.4692780  63.6780500  45.4510440  69.5219630  54.1454630  34.2595290
  69.9404510  53.9585610  33.4191950  69.2155690  53.2933680  34.5698220
  57.6105120  59.7365910  44.5780140  57.9778160  59.6493310  45.4576160
  57.0415940  58.9732460  44.4787000  58.3294480  55.6177810  33.8896510
  59.0386180  55.1961030  33.4043790  57.6134420  55.6853040  33.2579860
  57.6660830  50.9223330  42.8321780  58.3137020  50.3720710  42.3916940
  58.0862670  51.1766480  43.6537590  71.1194630  67.8180690  39.5909660
  71.7153700  67.4965260  38.9144080  71.3772780  67.3452510  40.3822930
  57.4192830  51.0779000  45.5747100  57.0707650  51.5342820  46.3405280
  57.0880530  50.1836130  45.6569530  59.0257200  64.2498600  49.7400290
  58.9826830  63.8791510  50.6214750  59.1568210  65.1876170  49.8802110
  62.7263230  65.8058190  45.3410010  62.4854590  66.0732750  44.4540530
  63.6665870  65.9763920  45.3960870  64.9317650  52.2690880  49.0966520
  64.8706540  52.8612710  49.8461930  65.8718030  52.1616840  48.9516780
  67.5692210  51.9260940  48.7358810  68.1832620  52.2440230  48.0739890
  68.1141770  51.4409530  49.3554670  58.0913470  50.6055200  48.8497870
  58.6396460  50.4243250  48.0863980  58.1568780  49.8149310  49.3854180
  58.8645230  67.1960850  46.8598070  58.2705550  67.0645550  47.5988110
  58.8569070  66.3598990  46.3940170  68.3100250  50.4893080  45.0628100
  67.4360090  50.8228190  44.8601030  68.2011000  50.0166260  45.8879970
  69.2172230  52.6963950  46.4469820  68.8885590  51.8815710  46.0671550
  70.1654530  52.6533760  46.3235510  71.6706840  68.4675990  43.4207390
  71.2109810  69.2191800  43.0465410  71.0419300  67.7482460  43.3622190
  58.4957460  64.5619230  45.8106110  57.7691520  63.9424520  45.7432060
  58.5566610  64.9559840  44.9404190  62.1002560  66.7764230  42.5955520
  62.6167580  66.1651590  42.0703780  62.7499940  67.2793010  43.0866530
  64.8398060  67.6672720  43.4224500  65.1275870  67.4127020  42.5457510
  65.3521280  67.1150080  44.0130070  66.0575070  51.4062920  44.0021010
  65.2746860  51.8808420  44.2817770  65.7638000  50.5017750  43.8934190
  70.6096140  52.1086020  42.0470100  71.0504230  52.0531120  41.1991700
  70.3403730  53.0244030  42.1180280  56.7787460  67.8793620  39.0202870
  56.6109500  67.2464300  39.7184760  55.9121970  68.0853020  38.6697060
  63.9429290  53.8249670  39.5137040  63.1303800  53.4506560  39.1732920
  64.4470930  53.0694750  39.8158230  68.4454270  50.4892120  40.7520110
  69.0483640  51.0612330  41.2268630  67.7047260  51.0531560  40.5294010
  58.3850160  66.5726850  36.4653010  57.8597780  66.9534880  35.7614970
  58.3094740  67.1977620  37.1862720  59.7740630  52.2374450  35.0636700
  60.3033390  51.4504250  34.9344650  60.4068950  52.9165640  35.2972230
  61.9678470  51.9749590  38.1182090  61.3381210  51.2736900  38.2852220
  61.4283610  52.7353720  37.9015250  64.9070420  68.5888820  50.7892700
  65.8337730  68.3533090  50.8328660  64.8920850  69.4160820  50.3078730
  62.0934030  51.2533570  50.5534580  61.8118300  51.7567170  49.7895400
  62.4753730  50.4555320  50.1876710  60.9843130  68.5209230  35.3402260
  61.7161950  68.2368510  34.7926150  61.2436800  68.2822510  36.2301640
  60.1457920  64.6373960  35.3448590  59.5166800  65.1059060  35.8934420
  60.2605750  63.7923180  35.7794780  68.6949490  50.6687150  51.1315050
  68.5814940  50.9881760  52.0266570  69.5119230  51.0699660  50.8352330
  67.6007640  58.6879620  21.4949790  67.5201690  57.7734230  21.2241500
  67.1872060  59.1846690  20.7889500  65.7325680  60.4658640  23.3759060
  64.9567780  59.9859080  23.6657630  66.3838610  59.7864290  23.2015220
  59.7491510  60.7778450  24.2534820  58.9176390  60.5227160  24.6531330
  60.3572490  60.8489220  24.9892740  69.7533110  64.8718830  22.1558190
  69.2914640  64.1006070  22.4845360  70.5658660  64.8984900  22.6610640
  59.7292770  64.8118540  24.4492840  60.0320810  63.9216280  24.2703060
  60.4736360  65.3688760  24.2215090  58.1583460  55.7380340  18.0377210
  57.2700160  56.0796310  17.9357090  58.4424650  55.5380660  17.1458040
  65.9796420  67.1576840  21.7762180  65.3607860  67.6134340  21.2056620
  66.8348200  67.3128300  21.3751880  65.1734670  63.1415830  23.3829220
  65.1042950  62.2005770  23.2218350  65.9354530  63.2317240  23.9551790
  66.2039840  55.9486210  23.6098150  66.5804660  55.0758090  23.4971820
  66.1059350  56.2844910  22.7188590  69.9863960  53.4436650  20.5426490
  70.8073580  52.9533220  20.5851970  70.0198040  54.0334310  21.2958330
  62.1752580  57.2898210  23.4040770  62.6830800  57.7879180  24.0445790
  62.7065820  56.5133410  23.2280130  60.4588680  51.9296770  27.6704190
  60.4607120  52.4469160  26.8650090  59.6292990  51.4526950  27.6474120
  66.8459770  62.0416080  19.1694090  66.2277040  62.5065530  18.6056810
  67.3583020  62.7343560  19.5863600  61.7091530  61.5691950  25.8477690
  61.3760910  62.1960870  26.4898760  61.8858210  62.0953830  25.0679360
  70.2225440  55.3837030  23.3154030  69.5181010  55.6721920  23.8957140
  70.5837600  56.1937140  22.9553590  60.9210630  63.5372750  27.6626870
  61.5384630  64.2123830  27.3811320  60.0603750  63.9460730  27.5714370
  56.2142970  62.7272610  16.5433720  55.8370950  63.2159710  15.8118620
  56.4716040  63.3997890  17.1740250  63.8231900  51.1289000  22.0019230
  64.1306880  50.5735890  21.2854730  62.8932600  51.2633460  21.8192220
  69.3746960  66.8456290  24.2926690  69.3874120  66.4418580  23.4248950
  68.8222180  67.6203580  24.1888120  70.6692380  63.5672510  19.3816860
  70.5588710  62.6246840  19.5066280  70.6660630  63.9288150  20.2679620
  68.7732400  61.7486130  25.6209300  69.1901190  61.5346240  24.7862760
  69.4972220  62.0058920  26.1917920  66.2112660  59.1937830  18.7379350
  65.2841940  59.1275210  18.9667820  66.3637480  60.1317960  18.6234590
  66.1981740  55.4654830  15.7346510  65.2585410  55.6268790  15.8198970
  66.5165000  56.1840510  15.1882500  70.2409950  60.7558130  19.2414600
  69.6222370  60.4177680  18.5940900  70.2234400  60.1117890  19.9493790
  69.6836510  56.9342670  26.6580410  69.2707690  57.7596380  26.9120400
  68.9512460  56.3487710  26.4656770  61.8169300  59.7202570  21.5199080
  61.4126300  59.0079820  21.0244980  61.9032420  59.3755810  22.4087120
  62.2851000  63.4070130  23.6838290  61.9879290  62.8015600  23.0046070
  63.2350820  63.4447440  23.5727650  60.5297920  56.4945780  25.2998120
  61.0812510  56.6041120  24.5251370  61.0441430  56.8683380  26.0153350
  70.3736610  66.9802000  27.3461390  69.8967170  67.7874190  27.1534000
  69.6898400  66.3280330  27.4987600  61.3769430  63.1451820  30.3346090
  60.4797960  63.3691790  30.5819490  61.4022300  63.2686760  29.3857490
  68.4174650  59.9944940  16.2487350  68.8567930  59.1567370  16.1025170
  69.1303070  60.6274340  16.3351490  60.2040650  60.0165140  28.9103460
  60.0648420  60.8887940  29.2790860  59.3222010  59.6737950  28.7651400
  66.5270030  64.9341010  20.2168590  66.9665940  65.6765340  19.8023980
  66.4656920  65.1767580  21.1407550  62.0021000  65.9586840  31.1188610
  61.9736430  66.3629790  30.2517040  61.8385970  65.0297200  30.9560210
  58.5173930  58.6147550  19.0205730  58.3971530  59.3409640  18.4087000
  58.2074820  57.8450460  18.5433640  56.1559300  61.7862690  24.8274370
  56.2339720  61.9211460  23.8830090  56.7700980  61.0778580  25.0202490
  57.4006930  63.4862880  21.2380550  56.9935010  63.6277470  20.3834150
  58.2919940  63.2023040  21.0351760  67.2185810  67.6354790  28.1447600
  67.7330480  67.5462800  28.9470030  66.3754890  67.9814490  28.4375510
  69.1940210  67.9210130  17.5731600  69.0341350  67.6313070  18.4713430
  69.0286920  67.1450260  17.0376830  61.6728590  67.7008660  19.3503220
  61.4971070  66.7844200  19.1371020  60.8184330  68.0595950  19.5901020
  68.8966340  65.4297690  16.1329600  68.2031500  65.4274980  15.4731880
  69.6389200  65.0057010  15.7023770  68.4616270  67.0560400  20.2078090
  68.9173220  66.2749780  20.5216710  68.8008790  67.7667220  20.7519270
  56.2118820  62.8276860  27.3668830  56.3749860  62.3582220  26.5488200
  56.6771270  62.3200420  28.0317670  65.2707400  54.8251140  28.0064720
  64.8086770  55.0334160  28.8184660  64.8685510  54.0110490  27.7035390
  70.2711910  56.0460090  29.1361380  69.4205500  55.7465840  29.4570450
  70.1113700  56.2902100  28.2245200  67.3661620  57.5461840  31.2360170
  67.6915030  56.7125590  30.8962400  68.1541950  58.0690360  31.3838500
  64.0996410  51.5793320  17.2835230  63.4750590  51.5753190  18.0088540
  64.0126530  50.7124280  16.8871200  63.0213490  52.5029950  24.2619000
  63.3185820  53.4092780  24.1811020  63.5699050  52.0148730  23.6478570
  60.7751810  57.0816190  20.1310650  60.5492730  56.8653360  21.0357270
  59.9944340  57.5144650  19.7856620  68.0049570  57.0879560  18.7301300
  67.4058460  57.8115360  18.5464920  68.5529180  57.0256340  17.9477750
  63.2151020  57.9801770  30.7970920  63.1194620  57.0396500  30.6471320
  64.0583000  58.2016840  30.4018990  66.6114440  55.7243100  20.7604580
  67.0044010  56.0415300  19.9473270  66.9731290  54.8454980  20.8749100
  64.9206610  54.4750410  32.0201440  64.2304930  54.2822610  32.6547530
  65.6638910  54.7585050  32.5525740  55.8348840  56.2564020  14.1937500
  55.7523510  57.1994780  14.3352490  55.4831900  56.1138930  13.3149850
  67.1969580  58.3148850  24.8555360  66.4650700  58.8235660  25.2045460
  66.7993920  57.4978830  24.5544140  63.6346970  54.9903050  23.2607850
  63.6383030  54.5493000  22.4112390  64.5298090  55.3120380  23.3679670
  63.6967120  55.9915130  16.2514610  63.8179940  55.9501610  17.2000430
  63.3115630  56.8539280  16.0961340  67.6595490  53.7682530  24.2678300
  67.6768230  54.2191180  25.1120150  67.4111070  52.8688170  24.4811740
  62.7088620  58.3016270  15.6497910  62.1405520  57.8534520  15.0233820
  63.4177620  58.6609050  15.1163060  71.0866240  51.1814710  30.1064680
  71.4112010  50.4504370  30.6322660  71.1222750  50.8628350  29.2045670
  57.7857800  62.2028290  29.5264640  57.4012590  61.5621960  30.1247600
  58.0969990  62.9064410  30.0959370  63.9354940  59.0504830  25.0073260
  64.3025070  58.5763400  25.7534600  63.7460000  59.9246400  25.3481600
  61.7254310  58.0913470  27.3257470  61.4211380  58.9705450  27.5507830
  62.6800770  58.1513260  27.3614910  60.2536100  62.2974460  17.9224320
  59.4798360  61.7572080  17.7623040  60.9830730  61.7781070  17.5842080
  66.4734020  52.6877780  17.8580100  65.6598630  52.1890950  17.7825410
  66.2795970  53.5276030  17.4416450  66.3942880  61.3648880  29.6019710
  66.3280190  60.4444550  29.3477300  65.7648020  61.4624320  30.3164350
  69.1882410  57.0597430  16.1542260  70.0762030  57.3714660  15.9793600
  69.1587500  56.1869680  15.7622840  60.2973500  61.9654840  21.5603130
  60.8152170  61.1623100  21.5060020  59.8457520  61.9033980  22.4019960
  65.1843000  63.2321120  16.8330430  65.5258700  63.9763350  16.3373750
  64.3555710  63.5452240  17.1955260  60.9831160  59.3900450  31.3568380
  60.6831300  59.5357630  30.4596200  61.7542400  58.8305740  31.2641770
  66.3259610  64.1869450  29.3523510  66.3404150  63.2550410  29.1342420
  65.6184710  64.2729210  29.9913280  68.0670410  62.5536960  22.1975940
  68.4194230  61.9565090  21.5377310  67.1832740  62.2281190  22.3684190
  64.1533690  63.3134650  19.6046350  64.8404820  63.8603860  19.9853940
  63.3666110  63.8575380  19.6395960  56.2926090  58.9307470  15.0963430
  57.1620940  59.2132270  15.3799350  55.8016410  59.7443340  14.9812240
  63.4560900  60.3180680  19.2171710  63.9123680  61.1285930  19.4431900
  63.1049110  60.0003820  20.0490200  65.7593510  65.8287020  26.4464010
  66.4035730  66.0346400  27.1237430  66.1222950  65.0675420  25.9934860
  67.0325590  63.8319370  25.1641460  67.6747820  63.1312530  25.2773630
  67.5574940  64.6117810  24.9838350  70.8781310  64.1167990  14.8880600
  70.6518890  63.3998430  15.4805240  70.4877510  63.8680430  14.0502350
  68.8063210  64.6314270  28.3677520  69.1419450  65.2180960  29.0455440
  67.8863550  64.5006980  28.5975310  56.6597340  68.1434850  15.6625060
  57.0194980  68.7424190  15.0082330  56.5189680  68.6894740  16.4360090
  70.4597560  62.0339930  16.5494760  70.1719260  62.4952620  17.3372640
  71.2549730  61.5737700  16.8178980  56.6439200  66.4089710  30.1367460
  56.7530320  65.4684450  29.9962850  55.9919760  66.6744460  29.4881190
  64.6351790  64.6805600  31.5365580  64.3148660  63.9614840  32.0811270
  63.9610150  65.3560670  31.6101640  62.6765960  65.5266050  16.4798730
  62.6676060  66.2595740  15.8643240  61.7564320  65.2797630  16.5725690
  58.2772600  60.7480940  17.2245490  57.6700550  61.4879840  17.2340790
  58.7521950  60.8380300  16.3983690  67.8505390  54.9131760  26.9002380
  68.2186210  54.0926970  27.2281950  66.9903590  54.9733650  27.3158030
  71.2167420  53.8688700  17.7089940  70.5880580  53.9734370  16.9948170
  70.7219340  54.0885480  18.4983820  65.6625560  65.5894290  15.1423920
  65.7637540  65.3858280  14.2125900  64.7627300  65.3352570  15.3471700
  63.1851450  56.1474650  19.1247820  62.4767600  56.6160990  19.5661430
  63.4695930  55.4896660  19.7593010  64.8107380  57.5671350  27.1240350
  65.3092630  58.0417170  27.7892200  64.9530330  56.6434870  27.3310380
  67.2166880  52.8725310  20.5643610  67.0934660  52.8911440  19.6153120
  68.1651440  52.9204250  20.6842010  64.3043670  68.1080610  19.8371590
  64.5585170  68.0702000  18.9150960  63.3556150  67.9813940  19.8299840
  61.3886470  54.4559730  16.4998530  62.2377000  54.8929880  16.4338720
  61.0217740  54.7679990  17.3270590  70.3096250  59.0272490  21.4130100
  69.3686390  59.0422720  21.5877790  70.6240320  58.2408450  21.8590400
  60.2877890  60.7092090  14.9734060  61.0541160  60.5973450  15.5359490
  60.3652580  60.0130060  14.3210830  58.9824650  58.1417160  15.6566950
  59.0628240  57.1944670  15.7684350  59.8744400  58.4724040  15.7627610
  59.7839360  68.2912550  22.7601490  60.5201840  67.7428010  23.0310060
  60.1680280  69.1568560  22.6207480  56.6684840  64.3586120  18.6343000
  55.7424620  64.6007260  18.6248410  57.1341270  65.1860380  18.5127750
  58.7897640  67.4758620  31.9487070  59.5910370  67.7970670  32.3622470
  58.2749460  67.1154200  32.6706980  62.8941670  67.4642860  14.5827060
  63.6870280  67.7531690  14.1308850  62.3746020  67.0335030  13.9039540
  67.6262270  63.5838490  31.8962480  67.0200430  63.6070090  31.1558230
  67.3216380  62.8521530  32.4329730  69.0562640  67.3118780  30.5071890
  70.0084390  67.2276800  30.4572130  68.9090860  67.9760490  31.1805680
  63.4119070  62.6846270  14.4469410  63.3069710  62.0698620  15.1730790
  63.2443290  62.1612160  13.6632420  63.5633390  61.3703070  30.4258640
  62.7979060  61.9388070  30.3413310  63.7449350  61.0779280  29.5326870
  66.6521800  61.7466300  15.0511400  66.1031900  62.1935600  15.6954140
  67.2741060  61.2415550  15.5749070  70.7056740  63.1008400  30.9833660
  71.4466210  63.4384160  30.4801120  69.9429420  63.2700460  30.4303430
  62.3196920  60.7057220  16.9476700  62.7413340  60.5397090  17.7908090
  62.4447760  59.8957450  16.4531840  64.8324560  59.7294830  14.1953800
  65.3530220  59.0143850  13.8294950  65.4792960  60.3680700  14.4954310
  69.3802400  61.1523230  29.5188870  69.7943420  61.3068310  30.3679290
  68.4453400  61.2778450  29.6814650  69.8524570  58.4919390  31.5228020
  70.4345340  57.7371710  31.4348500  70.0286340  59.0226830  30.7459500
  60.9696640  53.6516140  29.8344970  60.8753510  53.0336890  29.1095840
  60.3894030  54.3782430  29.6074880  63.7358080  52.2089380  26.8672360
  63.2875380  52.2313640  26.0217910  63.1023280  51.8108400  27.4642660
  64.1417630  61.1043710  27.4884800  64.5605740  61.9476440  27.3161040
  63.2226260  61.2415750  27.2591580  66.4781530  58.8359890  28.8722640
  66.5977740  58.2401030  29.6117480  67.3375530  58.8729580  28.4523940
  68.8169430  59.3897080  27.4485150  68.2904650  59.9139700  26.8450290
  69.1600770  60.0224470  28.0794880  61.2155820  56.7790450  13.8934860
  61.0144880  55.9157810  14.2548200  61.0447870  56.6923810  12.9556460
  61.9925050  67.4096720  28.6042530  61.4546140  68.1342780  28.2851230
  62.2459010  66.9327060  27.8139870  63.2450300  55.3781240  30.1298460
  63.8349990  55.0697090  30.8176280  62.4270540  54.9060990  30.2858360
  68.0643730  54.9947050  30.3631480  67.3759250  54.3328590  30.2981470
  68.7849750  54.5485320  30.8079940  68.6944130  51.5898680  16.4221740
  68.9746420  50.7466580  16.7781160  67.9209860  51.8221790  16.9360490
  60.0138620  53.8791070  13.8812740  60.3164520  53.8858500  12.9731890
  60.7533210  53.5288930  14.3780400  64.8487260  68.6447930  28.8629180
  64.7745960  69.5483070  29.1701550  63.9466100  68.3259830  28.8351250
  63.2323550  52.8225690  14.8668940  62.8845550  52.1449680  14.2871390
  63.4336320  52.3615200  15.6812330  65.3972590  67.8106440  16.4855540
  66.2923380  68.1491410  16.5074300  65.4290220  67.0885850  15.8579820
  59.0368750  63.1833490  14.7142540  59.4743620  63.7263160  15.3700120
  59.5216480  62.3580440  14.7238880  56.2514550  65.9722520  22.1662800
  56.5817560  65.1043580  21.9341440  56.6805550  66.1781040  22.9967760
  60.8476470  64.3031530  19.8264770  60.5472010  64.1796500  20.7268680
  60.7413960  63.4440120  19.4180500  56.7404760  66.8393110  24.9044430
  56.3035750  67.0193910  25.7368580  57.3082440  67.5967730  24.7626150
  56.5729190  59.3513340  21.2633310  55.9178030  59.0824980  20.6193010
  57.4107140  59.2417820  20.8135290  71.0618580  63.0662090  27.2897900
  70.2478420  63.4959250  27.5523690  71.4692780  63.6780500  26.6766950
  69.5219630  54.1454630  15.4851800  69.9404510  53.9585610  14.6448460
  69.2155690  53.2933680  15.7954730  55.7867270  56.5612270  17.2058640
  54.8831350  56.8242470  17.0310300  56.2707890  56.8323440  16.4258600
  58.3294480  55.6177810  15.1153020  59.0386180  55.1961030  14.6300300
  57.6134420  55.6853040  14.4836370  57.9768640  51.6717140  14.1555670
  58.6996770  52.2126080  14.4736890  58.2493160  51.3980560  13.2797210
  71.1194630  67.8180690  20.8166170  71.7153700  67.4965260  20.1400590
  71.3772780  67.3452510  21.6079440  59.0257200  64.2498600  30.9656800
  58.9826830  63.8791510  31.8471260  59.1568210  65.1876170  31.1058620
  62.7263230  65.8058190  26.5666520  62.4854590  66.0732750  25.6797040
  63.6665870  65.9763920  26.6217380  64.9317650  52.2690880  30.3223030
  64.8706540  52.8612710  31.0718440  65.8718030  52.1616840  30.1773290
  67.5692210  51.9260940  29.9615320  68.1832620  52.2440230  29.2996400
  68.1141770  51.4409530  30.5811180  58.8645230  67.1960850  28.0854580
  58.2705550  67.0645550  28.8244620  58.8569070  66.3598990  27.6196680
  68.3100250  50.4893080  26.2884610  67.4360090  50.8228190  26.0857540
  68.2011000  50.0166260  27.1136480  69.2172230  52.6963950  27.6726330
  68.8885590  51.8815710  27.2928060  70.1654530  52.6533760  27.5492020
  71.6706840  68.4675990  24.6463900  71.2109810  69.2191800  24.2721920
  71.0419300  67.7482460  24.5878700  58.4957460  64.5619230  27.0362620
  57.7691520  63.9424520  26.9688570  58.5566610  64.9559840  26.1660700
  62.1002560  66.7764230  23.8212030  62.6167580  66.1651590  23.2960290
  62.7499940  67.2793010  24.3123040  64.8398060  67.6672720  24.6481010
  65.1275870  67.4127020  23.7714020  65.3521280  67.1150080  25.2386580
  66.0575070  51.4062920  25.2277520  65.2746860  51.8808420  25.5074280
  65.7638000  50.5017750  25.1190700  70.6096140  52.1086020  23.2726610
  71.0504230  52.0531120  22.4248210  70.3403730  53.0244030  23.3436790
  56.7787460  67.8793620  20.2459380  56.6109500  67.2464300  20.9441270
  55.9121970  68.0853020  19.8953570  57.4015480  51.7110400  17.7491240
  58.1594840  51.8239280  17.1755270  56.9392650  52.5479600  17.7034670
  63.9429290  53.8249670  20.7393550  63.1303800  53.4506560  20.3989430
  64.4470930  53.0694750  21.0414740  68.4454270  50.4892120  21.9776620
  69.0483640  51.0612330  22.4525140  67.7047260  51.0531560  21.7550520
  58.3850160  66.5726850  17.6909520  57.8597780  66.9534880  16.9871480
  58.3094740  67.1977620  18.4119230  59.7740630  52.2374450  16.2893210
  60.3033390  51.4504250  16.1601160  60.4068950  52.9165640  16.5228740
  64.9070420  68.5888820  32.0149210  65.8337730  68.3533090  32.0585170
  64.8920850  69.4160820  31.5335240  62.0934030  51.2533570  31.7791090
  61.8118300  51.7567170  31.0151910  62.4753730  50.4555320  31.4133220
  60.9843130  68.5209230  16.5658770  61.7161950  68.2368510  16.0182660
  61.2436800  68.2822510  17.4558150  60.1457920  64.6373960  16.5705100
  59.5166800  65.1059060  17.1190930  60.2605750  63.7923180  17.0051290
  68.6949490  50.6687150  32.3571560  68.5814940  50.9881760  33.2523080
  69.5119230  51.0699660  32.0608840  67.6007640  58.6879620   2.7206300
  67.5201690  57.7734230   2.4498010  67.1872060  59.1846690   2.0146010
  65.7325680  60.4658640   4.6015570  64.9567780  59.9859080   4.8914140
  66.3838610  59.7864290   4.4271730  59.7491510  60.7778450   5.4791330
  58.9176390  60.5227160   5.8787840  60.3572490  60.8489220   6.2149250
  69.7533110  64.8718830   3.3814700  69.2914640  64.1006070   3.7101870
  70.5658660  64.8984900   3.8867150  59.7292770  64.8118540   5.6749350
  60.0320810  63.9216280   5.4959570  60.4736360  65.3688760   5.4471600
  56.1216470  58.3385990   5.1473420  56.6932580  57.5708190   5.1477060
  56.1218010  58.6374750   4.2380030  65.9796420  67.1576840   3.0018690
  65.3607860  67.6134340   2.4313130  66.8348200  67.3128300   2.6008390
  65.1734670  63.1415830   4.6085730  65.1042950  62.2005770   4.4474860
  65.9354530  63.2317240   5.1808300  57.3641340  53.7470350   6.9342350
  57.1844180  52.8496100   7.2145110  56.9621420  54.2942220   7.6089300
  66.2039840  55.9486210   4.8354660  66.5804660  55.0758090   4.7228330
  66.1059350  56.2844910   3.9445100  69.9863960  53.4436650   1.7683000
  70.8073580  52.9533220   1.8108480  70.0198040  54.0334310   2.5214840
  57.9828010  56.2430850   5.5424690  58.6638120  56.5069220   6.1612090
  57.6676060  55.4031720   5.8762700  62.1752580  57.2898210   4.6297280
  62.6830800  57.7879180   5.2702300  62.7065820  56.5133410   4.4536640
  60.4588680  51.9296770   8.8960700  60.4607120  52.4469160   8.0906600
  59.6292990  51.4526950   8.8730630  61.7091530  61.5691950   7.0734200
  61.3760910  62.1960870   7.7155270  61.8858210  62.0953830   6.2935870
  70.2225440  55.3837030   4.5410540  69.5181010  55.6721920   5.1213650
  70.5837600  56.1937140   4.1810100  60.1404010  53.6406730   6.9031150
  60.4820820  54.4848780   6.6085020  59.2019820  53.7890470   7.0196490
  60.9210630  63.5372750   8.8883380  61.5384630  64.2123830   8.6067830
  60.0603750  63.9460730   8.7970880  63.8231900  51.1289000   3.2275740
  64.1306880  50.5735890   2.5111240  62.8932600  51.2633460   3.0448730
  69.3746960  66.8456290   5.5183200  69.3874120  66.4418580   4.6505460
  68.8222180  67.6203580   5.4144630  68.7732400  61.7486130   6.8465810
  69.1901190  61.5346240   6.0119270  69.4972220  62.0058920   7.4174430
  69.6836510  56.9342670   7.8836920  69.2707690  57.7596380   8.1376910
  68.9512460  56.3487710   7.6913280  61.8169300  59.7202570   2.7455590
  61.4126300  59.0079820   2.2501490  61.9032420  59.3755810   3.6343630
  62.2851000  63.4070130   4.9094800  61.9879290  62.8015600   4.2302580
  63.2350820  63.4447440   4.7984160  60.5297920  56.4945780   6.5254630
  61.0812510  56.6041120   5.7507880  61.0441430  56.8683380   7.2409860
  70.3736610  66.9802000   8.5717900  69.8967170  67.7874190   8.3790510
  69.6898400  66.3280330   8.7244110  61.3769430  63.1451820  11.5602600
  60.4797960  63.3691790  11.8076000  61.4022300  63.2686760  10.6114000
  60.2040650  60.0165140  10.1359970  60.0648420  60.8887940  10.5047370
  59.3222010  59.6737950   9.9907910  62.0021000  65.9586840  12.3445120
  61.9736430  66.3629790  11.4773550  61.8385970  65.0297200  12.1816720
  56.1559300  61.7862690   6.0530880  56.2339720  61.9211460   5.1086600
  56.7700980  61.0778580   6.2459000  67.2185810  67.6354790   9.3704110
  67.7330480  67.5462800  10.1726540  66.3754890  67.9814490   9.6632020
  56.2118820  62.8276860   8.5925340  56.3749860  62.3582220   7.7744710
  56.6771270  62.3200420   9.2574180  60.9837590  51.9582620   3.6285910
  60.5405740  52.7392160   3.2970430  61.5422580  52.2812510   4.3356850
  65.2707400  54.8251140   9.2321230  64.8086770  55.0334160  10.0441170
  64.8685510  54.0110490   8.9291900  70.2711910  56.0460090  10.3617890
  69.4205500  55.7465840  10.6826960  70.1113700  56.2902100   9.4501710
  67.3661620  57.5461840  12.4616680  67.6915030  56.7125590  12.1218910
  68.1541950  58.0690360  12.6095010  63.0213490  52.5029950   5.4875510
  63.3185820  53.4092780   5.4067530  63.5699050  52.0148730   4.8735080
  63.2151020  57.9801770  12.0227430  63.1194620  57.0396500  11.8727830
  64.0583000  58.2016840  11.6275500  58.3461560  54.3915440  10.1761210
  57.9524950  55.2390650  10.3833990  57.6579960  53.7541810  10.3669850
  64.9206610  54.4750410  13.2457950  64.2304930  54.2822610  13.8804040
  65.6638910  54.7585050  13.7782250  55.6478610  52.3143900   4.2091290
  55.3591660  52.8846760   4.9216270  56.3924370  51.8348350   4.5722520
  67.1969580  58.3148850   6.0811870  66.4650700  58.8235660   6.4301970
  66.7993920  57.4978830   5.7800650  63.6346970  54.9903050   4.4864360
  63.6383030  54.5493000   3.6368900  64.5298090  55.3120380   4.5936180
  59.4849350  54.8729540   3.4458570  59.1449400  55.3504770   4.2025620
  58.7226670  54.4194660   3.0859670  67.6595490  53.7682530   5.4934810
  67.6768230  54.2191180   6.3376660  67.4111070  52.8688170   5.7068250
  71.0866240  51.1814710  11.3321190  71.4112010  50.4504370  11.8579170
  71.1222750  50.8628350  10.4302180  57.7857800  62.2028290  10.7521150
  57.4012590  61.5621960  11.3504110  58.0969990  62.9064410  11.3215880
  63.9354940  59.0504830   6.2329770  64.3025070  58.5763400   6.9791110
  63.7460000  59.9246400   6.5738110  56.7995430  53.7948520   2.3623240
  56.5142350  53.4304190   3.2001860  56.7374290  53.0628980   1.7486380
  61.7254310  58.0913470   8.5513980  61.4211380  58.9705450   8.7764340
  62.6800770  58.1513260   8.5871420  66.3942880  61.3648880  10.8276220
  66.3280190  60.4444550  10.5733810  65.7648020  61.4624320  11.5420860
  60.2973500  61.9654840   2.7859640  60.8152170  61.1623100   2.7316530
  59.8457520  61.9033980   3.6276470  57.7818040  58.9316210   9.6985340
  57.4232980  59.5970060  10.2858680  57.4872600  58.0999760  10.0697960
  60.9831160  59.3900450  12.5824890  60.6831300  59.5357630  11.6852710
  61.7542400  58.8305740  12.4898280  66.3259610  64.1869450  10.5780020
  66.3404150  63.2550410  10.3598930  65.6184710  64.2729210  11.2169790
  68.0670410  62.5536960   3.4232450  68.4194230  61.9565090   2.7633820
  67.1832740  62.2281190   3.5940700  65.7593510  65.8287020   7.6720520
  66.4035730  66.0346400   8.3493940  66.1222950  65.0675420   7.2191370
  67.0325590  63.8319370   6.3897970  67.6747820  63.1312530   6.5030140
  67.5574940  64.6117810   6.2094860  68.8063210  64.6314270   9.5934030
  69.1419450  65.2180960  10.2711950  67.8863550  64.5006980   9.8231820
  56.3566610  52.4209450  10.3757440  55.6425130  52.6206370  10.9810050
  56.7761650  51.6449020  10.7472240  56.6439200  66.4089710  11.3623970
  56.7530320  65.4684450  11.2219360  55.9919760  66.6744460  10.7137700
  64.6351790  64.6805600  12.7622090  64.3148660  63.9614840  13.3067780
  63.9610150  65.3560670  12.8358150  67.8505390  54.9131760   8.1258890
  68.2186210  54.0926970   8.4538460  66.9903590  54.9733650   8.5414540
  64.8107380  57.5671350   8.3496860  65.3092630  58.0417170   9.0148710
  64.9530330  56.6434870   8.5566890  70.3096250  59.0272490   2.6386610
  69.3686390  59.0422720   2.8134300  70.6240320  58.2408450   3.0846910
  59.7839360  68.2912550   3.9858000  60.5201840  67.7428010   4.2566570
  60.1680280  69.1568560   3.8463990  58.7897640  67.4758620  13.1743580
  59.5910370  67.7970670  13.5878980  58.2749460  67.1154200  13.8963490
  67.6262270  63.5838490  13.1218990  67.0200430  63.6070090  12.3814740
  67.3216380  62.8521530  13.6586240  69.0562640  67.3118780  11.7328400
  70.0084390  67.2276800  11.6828640  68.9090860  67.9760490  12.4062190
  56.5095450  59.9632080  12.1179630  57.0134470  59.3839360  12.6895860
  55.7702870  60.2472310  12.6556000  63.5633390  61.3703070  11.6515150
  62.7979060  61.9388070  11.5669820  63.7449350  61.0779280  10.7583380
  70.7056740  63.1008400  12.2090170  71.4466210  63.4384160  11.7057630
  69.9429420  63.2700460  11.6559940  58.5418530  58.1061670  13.0129700
  58.5823870  57.8075540  13.9214930  59.3964030  58.5069280  12.8537220
  60.4824340  56.6853770  10.9804190  59.9520800  56.1944720  10.3527530
  61.1512410  57.1137970  10.4462120  69.3802400  61.1523230  10.7445380
  69.7943420  61.3068310  11.5935800  68.4453400  61.2778450  10.9071160
  69.8524570  58.4919390  12.7484530  70.4345340  57.7371710  12.6605010
  70.0286340  59.0226830  11.9716010  60.9696640  53.6516140  11.0601480
  60.8753510  53.0336890  10.3352350  60.3894030  54.3782430  10.8331390
  63.7358080  52.2089380   8.0928870  63.2875380  52.2313640   7.2474420
  63.1023280  51.8108400   8.6899170  64.1417630  61.1043710   8.7141310
  64.5605740  61.9476440   8.5417550  63.2226260  61.2415750   8.4848090
  66.4781530  58.8359890  10.0979150  66.5977740  58.2401030  10.8373990
  67.3375530  58.8729580   9.6780450  68.8169430  59.3897080   8.6741660
  68.2904650  59.9139700   8.0706800  69.1600770  60.0224470   9.3051390
  61.9925050  67.4096720   9.8299040  61.4546140  68.1342780   9.5107740
  62.2459010  66.9327060   9.0396380  63.2450300  55.3781240  11.3554970
  63.8349990  55.0697090  12.0432790  62.4270540  54.9060990  11.5114870
  68.0643730  54.9947050  11.5887990  67.3759250  54.3328590  11.5237980
  68.7849750  54.5485320  12.0336450  64.8487260  68.6447930  10.0885690
  64.7745960  69.5483070  10.3958060  63.9466100  68.3259830  10.0607760
  56.2514550  65.9722520   3.3919310  56.5817560  65.1043580   3.1597950
  56.6805550  66.1781040   4.2224270  56.7404760  66.8393110   6.1300940
  56.3035750  67.0193910   6.9625090  57.3082440  67.5967730   5.9882660
  56.5729190  59.3513340   2.4889820  55.9178030  59.0824980   1.8449520
  57.4107140  59.2417820   2.0391800  71.0618580  63.0662090   8.5154410
  70.2478420  63.4959250   8.7780200  71.4692780  63.6780500   7.9023460
  57.6105120  59.7365910   7.0293160  57.9778160  59.6493310   7.9089180
  57.0415940  58.9732460   6.9300020  57.1621120  56.6475000  10.9351580
  56.2677170  56.6141760  11.2745290  57.7018670  56.8461790  11.7002830
  57.6660830  50.9223330   5.2834800  58.3137020  50.3720710   4.8429960
  58.0862670  51.1766480   6.1050610  57.4192830  51.0779000   8.0260120
  57.0707650  51.5342820   8.7918300  57.0880530  50.1836130   8.1082550
  59.0257200  64.2498600  12.1913310  58.9826830  63.8791510  13.0727770
  59.1568210  65.1876170  12.3315130  62.7263230  65.8058190   7.7923030
  62.4854590  66.0732750   6.9053550  63.6665870  65.9763920   7.8473890
  64.9317650  52.2690880  11.5479540  64.8706540  52.8612710  12.2974950
  65.8718030  52.1616840  11.4029800  67.5692210  51.9260940  11.1871830
  68.1832620  52.2440230  10.5252910  68.1141770  51.4409530  11.8067690
  58.0913470  50.6055200  11.3010890  58.6396460  50.4243250  10.5377000
  58.1568780  49.8149310  11.8367200  58.8645230  67.1960850   9.3111090
  58.2705550  67.0645550  10.0501130  58.8569070  66.3598990   8.8453190
  68.3100250  50.4893080   7.5141120  67.4360090  50.8228190   7.3114050
  68.2011000  50.0166260   8.3392990  69.2172230  52.6963950   8.8982840
  68.8885590  51.8815710   8.5184570  70.1654530  52.6533760   8.7748530
  71.6706840  68.4675990   5.8720410  71.2109810  69.2191800   5.4978430
  71.0419300  67.7482460   5.8135210  58.4957460  64.5619230   8.2619130
  57.7691520  63.9424520   8.1945080  58.5566610  64.9559840   7.3917210
  62.1002560  66.7764230   5.0468540  62.6167580  66.1651590   4.5216800
  62.7499940  67.2793010   5.5379550  64.8398060  67.6672720   5.8737520
  65.1275870  67.4127020   4.9970530  65.3521280  67.1150080   6.4643090
  66.0575070  51.4062920   6.4534030  65.2746860  51.8808420   6.7330790
  65.7638000  50.5017750   6.3447210  70.6096140  52.1086020   4.4983120
  71.0504230  52.0531120   3.6504720  70.3403730  53.0244030   4.5693300
  68.4454270  50.4892120   3.2033130  69.0483640  51.0612330   3.6781650
  67.7047260  51.0531560   2.9807030  64.9070420  68.5888820  13.2405720
  65.8337730  68.3533090  13.2841680  64.8920850  69.4160820  12.7591750
  62.0934030  51.2533570  13.0047600  61.8118300  51.7567170  12.2408420
  62.4753730  50.4555320  12.6389730  68.6949490  50.6687150  13.5828070
  68.5814940  50.9881760  14.4779590  69.5119230  51.0699660  13.2865350
  67.6007640  39.9136130  59.0436770  67.5201690  38.9990740  58.7728480
  67.1872060  40.4103200  58.3376480  65.7325680  41.6915150  60.9246040
  64.9567780  41.2115590  61.2144610  66.3838610  41.0120800  60.7502200
  59.7491510  42.0034960  61.8021800  58.9176390  41.7483670  62.2018310
  60.3572490  42.0745730  62.5379720  69.7533110  46.0975340  59.7045170
  69.2914640  45.3262580  60.0332340  70.5658660  46.1241410  60.2097620
  59.7292770  46.0375050  61.9979820  60.0320810  45.1472790  61.8190040
  60.4736360  46.5945270  61.7702070  58.1583460  36.9636850  55.5864190
  57.2700160  37.3052820  55.4844070  58.4424650  36.7637170  54.6945020
  56.1216470  39.5642500  61.4703890  56.6932580  38.7964700  61.4707530
  56.1218010  39.8631260  60.5610500  65.9796420  48.3833350  59.3249160
  65.3607860  48.8390850  58.7543600  66.8348200  48.5384810  58.9238860
  65.1734670  44.3672340  60.9316200  65.1042950  43.4262280  60.7705330
  65.9354530  44.4573750  61.5038770  66.2039840  37.1742720  61.1585130
  66.5804660  36.3014600  61.0458800  66.1059350  37.5101420  60.2675570
  60.3344850  35.5468350  56.6202570  60.4411600  36.4472080  56.9271330
  59.4237210  35.4986320  56.3297220  69.9863960  34.6693160  58.0913470
  70.8073580  34.1789730  58.1338950  70.0198040  35.2590820  58.8445310
  57.9828010  37.4687360  61.8655160  58.6638120  37.7325730  62.4842560
  57.6676060  36.6288230  62.1993170  62.1752580  38.5154720  60.9527750
  62.6830800  39.0135690  61.5932770  62.7065820  37.7389920  60.7767110
  66.8459770  43.2672590  56.7181070  66.2277040  43.7322040  56.1543790
  67.3583020  43.9600070  57.1350580  70.2225440  36.6093540  60.8641010
  69.5181010  36.8978430  61.4444120  70.5837600  37.4193650  60.5040570
  56.2142970  43.9529120  54.0920700  55.8370950  44.4416220  53.3605600
  56.4716040  44.6254400  54.7227230  63.8231900  32.3545510  59.5506210
  64.1306880  31.7992400  58.8341710  62.8932600  32.4889970  59.3679200
  69.3746960  48.0712800  61.8413670  69.3874120  47.6675090  60.9735930
  68.8222180  48.8460090  61.7375100  70.6692380  44.7929020  56.9303840
  70.5588710  43.8503350  57.0553260  70.6660630  45.1544660  57.8166600
  66.2112660  40.4194340  56.2866330  65.2841940  40.3531720  56.5154800
  66.3637480  41.3574470  56.1721570  66.1981740  36.6911340  53.2833490
  65.2585410  36.8525300  53.3685950  66.5165000  37.4097020  52.7369480
  70.2409950  41.9814640  56.7901580  69.6222370  41.6434190  56.1427880
  70.2234400  41.3374400  57.4980770  61.8169300  40.9459080  59.0686060
  61.4126300  40.2336330  58.5731960  61.9032420  40.6012320  59.9574100
  62.2851000  44.6326640  61.2325270  61.9879290  44.0272110  60.5533050
  63.2350820  44.6703950  61.1214630  68.4174650  41.2201450  53.7974330
  68.8567930  40.3823880  53.6512150  69.1303070  41.8530850  53.8838470
  66.5270030  46.1597520  57.7655570  66.9665940  46.9021850  57.3510960
  66.4656920  46.4024090  58.6894530  58.5173930  39.8404060  56.5692710
  58.3971530  40.5666150  55.9573980  58.2074820  39.0706970  56.0920620
  56.1559300  43.0119200  62.3761350  56.2339720  43.1467970  61.4317070
  56.7700980  42.3035090  62.5689470  57.4006930  44.7119390  58.7867530
  56.9935010  44.8533980  57.9321130  58.2919940  44.4279550  58.5838740
  69.1940210  49.1466640  55.1218580  69.0341350  48.8569580  56.0200410
  69.0286920  48.3706770  54.5863810  61.6728590  48.9265170  56.8990200
  61.4971070  48.0100710  56.6858000  60.8184330  49.2852460  57.1388000
  68.8966340  46.6554200  53.6816580  68.2031500  46.6531490  53.0218860
  69.6389200  46.2313520  53.2510750  68.4616270  48.2816910  57.7565070
  68.9173220  47.5006290  58.0703690  68.8008790  48.9923730  58.3006250
  60.9837590  33.1839130  59.9516380  60.5405740  33.9648670  59.6200900
  61.5422580  33.5069020  60.6587320  64.0996410  32.8049830  54.8322210
  63.4750590  32.8009700  55.5575520  64.0126530  31.9380790  54.4358180
  63.0213490  33.7286460  61.8105980  63.3185820  34.6349290  61.7298000
  63.5699050  33.2405240  61.1965550  60.7751810  38.3072700  57.6797630
  60.5492730  38.0909870  58.5844250  59.9944340  38.7401160  57.3343600
  68.0049570  38.3136070  56.2788280  67.4058460  39.0371870  56.0951900
  68.5529180  38.2512850  55.4964730  66.6114440  36.9499610  58.3091560
  67.0044010  37.2671810  57.4960250  66.9731290  36.0711490  58.4236080
  55.6478610  33.5400410  60.5321760  55.3591660  34.1103270  61.2446740
  56.3924370  33.0604860  60.8952990  55.8348840  37.4820530  51.7424480
  55.7523510  38.4251290  51.8839470  55.4831900  37.3395440  50.8636830
  67.1969580  39.5405360  62.4042340  66.4650700  40.0492170  62.7532440
  66.7993920  38.7235340  62.1031120  63.6346970  36.2159560  60.8094830
  63.6383030  35.7749510  59.9599370  64.5298090  36.5376890  60.9166650
  59.4849350  36.0986050  59.7689040  59.1449400  36.5761280  60.5256090
  58.7226670  35.6451170  59.4090140  63.6967120  37.2171640  53.8001590
  63.8179940  37.1758120  54.7487410  63.3115630  38.0795790  53.6448320
  67.6595490  34.9939040  61.8165280  67.6768230  35.4447690  62.6607130
  67.4111070  34.0944680  62.0298720  62.7088620  39.5272780  53.1984890
  62.1405520  39.0791030  52.5720800  63.4177620  39.8865560  52.6650040
  56.7995430  35.0205030  58.6853710  56.5142350  34.6560700  59.5232330
  56.7374290  34.2885490  58.0716850  60.2536100  43.5230970  55.4711300
  59.4798360  42.9828590  55.3110020  60.9830730  43.0037580  55.1329060
  66.4734020  33.9134290  55.4067080  65.6598630  33.4147460  55.3312390
  66.2795970  34.7532540  54.9903430  69.1882410  38.2853940  53.7029240
  70.0762030  38.5971170  53.5280580  69.1587500  37.4126190  53.3109820
  60.2973500  43.1911350  59.1090110  60.8152170  42.3879610  59.0547000
  59.8457520  43.1290490  59.9506940  65.1843000  44.4577630  54.3817410
  65.5258700  45.2019860  53.8860730  64.3555710  44.7708750  54.7442240
  68.0670410  43.7793470  59.7462920  68.4194230  43.1821600  59.0864290
  67.1832740  43.4537700  59.9171170  64.1533690  44.5391160  57.1533330
  64.8404820  45.0860370  57.5340920  63.3666110  45.0831890  57.1882940
  56.2926090  40.1563980  52.6450410  57.1620940  40.4388780  52.9286330
  55.8016410  40.9699850  52.5299220  63.4560900  41.5437190  56.7658690
  63.9123680  42.3542440  56.9918880  63.1049110  41.2260330  57.5977180
  59.3572680  31.8874840  57.2381210  59.2287310  31.8792740  58.1866130
  58.5334700  32.2257930  56.8872220  67.0325590  45.0575880  62.7128440
  67.6747820  44.3569040  62.8260610  67.5574940  45.8374320  62.5325330
  70.8781310  45.3424500  52.4367580  70.6518890  44.6254940  53.0292220
  70.4877510  45.0936940  51.5989330  56.6597340  49.3691360  53.2112040
  57.0194980  49.9680700  52.5569310  56.5189680  49.9151250  53.9847070
  70.4597560  43.2596440  54.0981740  70.1719260  43.7209130  54.8859620
  71.2549730  42.7994210  54.3665960  62.6765960  46.7522560  54.0285710
  62.6676060  47.4852250  53.4130220  61.7564320  46.5054140  54.1212670
  58.2772600  41.9737450  54.7732470  57.6700550  42.7136350  54.7827770
  58.7521950  42.0636810  53.9470670  71.2167420  35.0945210  55.2576920
  70.5880580  35.1990880  54.5435150  70.7219340  35.3141990  56.0470800
  65.6625560  46.8150800  52.6910900  65.7637540  46.6114790  51.7612880
  64.7627300  46.5609080  52.8958680  63.1851450  37.3731160  56.6734800
  62.4767600  37.8417500  57.1148410  63.4695930  36.7153170  57.3079990
  67.2166880  34.0981820  58.1130590  67.0934660  34.1167950  57.1640100
  68.1651440  34.1460760  58.2328990  64.3043670  49.3337120  57.3858570
  64.5585170  49.2958510  56.4637940  63.3556150  49.2070450  57.3786820
  61.3886470  35.6816240  54.0485510  62.2377000  36.1186390  53.9825700
  61.0217740  35.9936500  54.8757570  70.3096250  40.2529000  58.9617080
  69.3686390  40.2679230  59.1364770  70.6240320  39.4664960  59.4077380
  60.2877890  41.9348600  52.5221040  61.0541160  41.8229960  53.0846470
  60.3652580  41.2386570  51.8697810  58.9824650  39.3673670  53.2053930
  59.0628240  38.4201180  53.3171330  59.8744400  39.6980550  53.3114590
  59.7839360  49.5169060  60.3088470  60.5201840  48.9684520  60.5797040
  60.1680280  50.3825070  60.1694460  56.6684840  45.5842630  56.1829980
  55.7424620  45.8263770  56.1735390  57.1341270  46.4116890  56.0614730
  62.8941670  48.6899370  52.1314040  63.6870280  48.9788200  51.6795830
  62.3746020  48.2591540  51.4526520  63.4119070  43.9102780  51.9956390
  63.3069710  43.2955130  52.7217770  63.2443290  43.3868670  51.2119400
  66.6521800  42.9722810  52.5998380  66.1031900  43.4192110  53.2441120
  67.2741060  42.4672060  53.1236050  62.3196920  41.9313730  54.4963680
  62.7413340  41.7653600  55.3395070  62.4447760  41.1213960  54.0018820
  64.8324560  40.9551340  51.7440780  65.3530220  40.2400360  51.3781930
  65.4792960  41.5937210  52.0441290  61.2155820  38.0046960  51.4421840
  61.0144880  37.1414320  51.8035180  61.0447870  37.9180320  50.5043440
  68.6944130  32.8155190  53.9708720  68.9746420  31.9723090  54.3268140
  67.9209860  33.0478300  54.4847470  60.0138620  35.1047580  51.4299720
  60.3164520  35.1115010  50.5218870  60.7533210  34.7545440  51.9267380
  63.2323550  34.0482200  52.4155920  62.8845550  33.3706190  51.8358370
  63.4336320  33.5871710  53.2299310  65.3972590  49.0362950  54.0342520
  66.2923380  49.3747920  54.0561280  65.4290220  48.3142360  53.4066800
  59.0368750  44.4090000  52.2629520  59.4743620  44.9519670  52.9187100
  59.5216480  43.5836950  52.2725860  56.2514550  47.1979030  59.7149780
  56.5817560  46.3300090  59.4828420  56.6805550  47.4037550  60.5454740
  60.8476470  45.5288040  57.3751750  60.5472010  45.4053010  58.2755660
  60.7413960  44.6696630  56.9667480  56.5729190  40.5769850  58.8120290
  55.9178030  40.3081490  58.1679990  57.4107140  40.4674330  58.3622270
  69.5219630  35.3711140  53.0338780  69.9404510  35.1842120  52.1935440
  69.2155690  34.5190190  53.3441710  55.7867270  37.7868780  54.7545620
  54.8831350  38.0498980  54.5797280  56.2707890  38.0579950  53.9745580
  58.3294480  36.8434320  52.6640000  59.0386180  36.4217540  52.1787280
  57.6134420  36.9109550  52.0323350  57.9768640  32.8973650  51.7042650
  58.6996770  33.4382590  52.0223870  58.2493160  32.6237070  50.8284190
  57.6660830  32.1479840  61.6065270  58.3137020  31.5977220  61.1660430
  58.0862670  32.4022990  62.4281080  71.1194630  49.0437200  58.3653150
  71.7153700  48.7221770  57.6887570  71.3772780  48.5709020  59.1566420
  71.6706840  49.6932500  62.1950880  71.2109810  50.4448310  61.8208900
  71.0419300  48.9738970  62.1365680  62.1002560  48.0020740  61.3699010
  62.6167580  47.3908100  60.8447270  62.7499940  48.5049520  61.8610020
  64.8398060  48.8929230  62.1967990  65.1275870  48.6383530  61.3201000
  65.3521280  48.3406590  62.7873560  66.0575070  32.6319430  62.7764500
  65.2746860  33.1064930  63.0561260  65.7638000  31.7274260  62.6677680
  70.6096140  33.3342530  60.8213590  71.0504230  33.2787630  59.9735190
  70.3403730  34.2500540  60.8923770  56.7787460  49.1050130  57.7946360
  56.6109500  48.4720810  58.4928250  55.9121970  49.3109530  57.4440550
  57.4015480  32.9366910  55.2978220  58.1594840  33.0495790  54.7242250
  56.9392650  33.7736110  55.2521650  63.9429290  35.0506180  58.2880530
  63.1303800  34.6763070  57.9476410  64.4470930  34.2951260  58.5901720
  68.4454270  31.7148630  59.5263600  69.0483640  32.2868840  60.0012120
  67.7047260  32.2788070  59.3037500  58.3850160  47.7983360  55.2396500
  57.8597780  48.1791390  54.5358460  58.3094740  48.4234130  55.9606210
  59.7740630  33.4630960  53.8380190  60.3033390  32.6760760  53.7088140
  60.4068950  34.1422150  54.0715720  61.9678470  33.2006100  56.8925580
  61.3381210  32.4993410  57.0595710  61.4283610  33.9610230  56.6758740
  60.9843130  49.7465740  54.1145750  61.7161950  49.4625020  53.5669640
  61.2436800  49.5079020  55.0045130  60.1457920  45.8630470  54.1192080
  59.5166800  46.3315570  54.6677910  60.2605750  45.0179690  54.5538270
  67.6007640  39.9136130  40.2693280  67.5201690  38.9990740  39.9984990
  67.1872060  40.4103200  39.5632990  65.7325680  41.6915150  42.1502550
  64.9567780  41.2115590  42.4401120  66.3838610  41.0120800  41.9758710
  59.7491510  42.0034960  43.0278310  58.9176390  41.7483670  43.4274820
  60.3572490  42.0745730  43.7636230  69.7533110  46.0975340  40.9301680
  69.2914640  45.3262580  41.2588850  70.5658660  46.1241410  41.4354130
  59.7292770  46.0375050  43.2236330  60.0320810  45.1472790  43.0446550
  60.4736360  46.5945270  42.9958580  58.1583460  36.9636850  36.8120700
  57.2700160  37.3052820  36.7100580  58.4424650  36.7637170  35.9201530
  56.1216470  39.5642500  42.6960400  56.6932580  38.7964700  42.6964040
  56.1218010  39.8631260  41.7867010  65.9796420  48.3833350  40.5505670
  65.3607860  48.8390850  39.9800110  66.8348200  48.5384810  40.1495370
  65.1734670  44.3672340  42.1572710  65.1042950  43.4262280  41.9961840
  65.9354530  44.4573750  42.7295280  57.3641340  34.9726860  44.4829330
  57.1844180  34.0752610  44.7632090  56.9621420  35.5198730  45.1576280
  66.2039840  37.1742720  42.3841640  66.5804660  36.3014600  42.2715310
  66.1059350  37.5101420  41.4932080  60.3344850  35.5468350  37.8459080
  60.4411600  36.4472080  38.1527840  59.4237210  35.4986320  37.5553730
  69.9863960  34.6693160  39.3169980  70.8073580  34.1789730  39.3595460
  70.0198040  35.2590820  40.0701820  57.9828010  37.4687360  43.0911670
  58.6638120  37.7325730  43.7099070  57.6676060  36.6288230  43.4249680
  62.1752580  38.5154720  42.1784260  62.6830800  39.0135690  42.8189280
  62.7065820  37.7389920  42.0023620  60.4588680  33.1553280  46.4447680
  60.4607120  33.6725670  45.6393580  59.6292990  32.6783460  46.4217610
  66.8459770  43.2672590  37.9437580  66.2277040  43.7322040  37.3800300
  67.3583020  43.9600070  38.3607090  61.7091530  42.7948460  44.6221180
  61.3760910  43.4217380  45.2642250  61.8858210  43.3210340  43.8422850
  70.2225440  36.6093540  42.0897520  69.5181010  36.8978430  42.6700630
  70.5837600  37.4193650  41.7297080  60.1404010  34.8663240  44.4518130
  60.4820820  35.7105290  44.1572000  59.2019820  35.0146980  44.5683470
  60.9210630  44.7629260  46.4370360  61.5384630  45.4380340  46.1554810
  60.0603750  45.1717240  46.3457860  56.2142970  43.9529120  35.3177210
  55.8370950  44.4416220  34.5862110  56.4716040  44.6254400  35.9483740
  63.8231900  32.3545510  40.7762720  64.1306880  31.7992400  40.0598220
  62.8932600  32.4889970  40.5935710  69.3746960  48.0712800  43.0670180
  69.3874120  47.6675090  42.1992440  68.8222180  48.8460090  42.9631610
  70.6692380  44.7929020  38.1560350  70.5588710  43.8503350  38.2809770
  70.6660630  45.1544660  39.0423110  68.7732400  42.9742640  44.3952790
  69.1901190  42.7602750  43.5606250  69.4972220  43.2315430  44.9661410
  66.2112660  40.4194340  37.5122840  65.2841940  40.3531720  37.7411310
  66.3637480  41.3574470  37.3978080  66.1981740  36.6911340  34.5090000
  65.2585410  36.8525300  34.5942460  66.5165000  37.4097020  33.9625990
  70.2409950  41.9814640  38.0158090  69.6222370  41.6434190  37.3684390
  70.2234400  41.3374400  38.7237280  69.6836510  38.1599180  45.4323900
  69.2707690  38.9852890  45.6863890  68.9512460  37.5744220  45.2400260
  61.8169300  40.9459080  40.2942570  61.4126300  40.2336330  39.7988470
  61.9032420  40.6012320  41.1830610  62.2851000  44.6326640  42.4581780
  61.9879290  44.0272110  41.7789560  63.2350820  44.6703950  42.3471140
  60.5297920  37.7202290  44.0741610  61.0812510  37.8297630  43.2994860
  61.0441430  38.0939890  44.7896840  70.3736610  48.2058510  46.1204880
  69.8967170  49.0130700  45.9277490  69.6898400  47.5536840  46.2731090
  61.3769430  44.3708330  49.1089580  60.4797960  44.5948300  49.3562980
  61.4022300  44.4943270  48.1600980  68.4174650  41.2201450  35.0230840
  68.8567930  40.3823880  34.8768660  69.1303070  41.8530850  35.1094980
  60.2040650  41.2421650  47.6846950  60.0648420  42.1144450  48.0534350
  59.3222010  40.8994460  47.5394890  66.5270030  46.1597520  38.9912080
  66.9665940  46.9021850  38.5767470  66.4656920  46.4024090  39.9151040
  62.0021000  47.1843350  49.8932100  61.9736430  47.5886300  49.0260530
  61.8385970  46.2553710  49.7303700  58.5173930  39.8404060  37.7949220
  58.3971530  40.5666150  37.1830490  58.2074820  39.0706970  37.3177130
  57.4006930  44.7119390  40.0124040  56.9935010  44.8533980  39.1577640
  58.2919940  44.4279550  39.8095250  67.2185810  48.8611300  46.9191090
  67.7330480  48.7719310  47.7213520  66.3754890  49.2071000  47.2119000
  69.1940210  49.1466640  36.3475090  69.0341350  48.8569580  37.2456920
  69.0286920  48.3706770  35.8120320  61.6728590  48.9265170  38.1246710
  61.4971070  48.0100710  37.9114510  60.8184330  49.2852460  38.3644510
  68.8966340  46.6554200  34.9073090  68.2031500  46.6531490  34.2475370
  69.6389200  46.2313520  34.4767260  68.4616270  48.2816910  38.9821580
  68.9173220  47.5006290  39.2960200  68.8008790  48.9923730  39.5262760
  56.2118820  44.0533370  46.1412320  56.3749860  43.5838730  45.3231690
  56.6771270  43.5456930  46.8061160  60.9837590  33.1839130  41.1772890
  60.5405740  33.9648670  40.8457410  61.5422580  33.5069020  41.8843830
  65.2707400  36.0507650  46.7808210  64.8086770  36.2590670  47.5928150
  64.8685510  35.2367000  46.4778880  70.2711910  37.2716600  47.9104870
  69.4205500  36.9722350  48.2313940  70.1113700  37.5158610  46.9988690
  67.3661620  38.7718350  50.0103660  67.6915030  37.9382100  49.6705890
  68.1541950  39.2946870  50.1581990  64.0996410  32.8049830  36.0578720
  63.4750590  32.8009700  36.7832030  64.0126530  31.9380790  35.6614690
  63.0213490  33.7286460  43.0362490  63.3185820  34.6349290  42.9554510
  63.5699050  33.2405240  42.4222060  60.7751810  38.3072700  38.9054140
  60.5492730  38.0909870  39.8100760  59.9944340  38.7401160  38.5600110
  68.0049570  38.3136070  37.5044790  67.4058460  39.0371870  37.3208410
  68.5529180  38.2512850  36.7221240  63.2151020  39.2058280  49.5714410
  63.1194620  38.2653010  49.4214810  64.0583000  39.4273350  49.1762480
  66.6114440  36.9499610  39.5348070  67.0044010  37.2671810  38.7216760
  66.9731290  36.0711490  39.6492590  58.3461560  35.6171950  47.7248190
  57.9524950  36.4647160  47.9320970  57.6579960  34.9798320  47.9156830
  64.9206610  35.7006920  50.7944930  64.2304930  35.5079120  51.4291020
  65.6638910  35.9841560  51.3269230  55.6478610  33.5400410  41.7578270
  55.3591660  34.1103270  42.4703250  56.3924370  33.0604860  42.1209500
  67.1969580  39.5405360  43.6298850  66.4650700  40.0492170  43.9788950
  66.7993920  38.7235340  43.3287630  63.6346970  36.2159560  42.0351340
  63.6383030  35.7749510  41.1855880  64.5298090  36.5376890  42.1423160
  59.4849350  36.0986050  40.9945550  59.1449400  36.5761280  41.7512600
  58.7226670  35.6451170  40.6346650  63.6967120  37.2171640  35.0258100
  63.8179940  37.1758120  35.9743920  63.3115630  38.0795790  34.8704830
  67.6595490  34.9939040  43.0421790  67.6768230  35.4447690  43.8863640
  67.4111070  34.0944680  43.2555230  62.7088620  39.5272780  34.4241400
  62.1405520  39.0791030  33.7977310  63.4177620  39.8865560  33.8906550
  71.0866240  32.4071220  48.8808170  71.4112010  31.6760880  49.4066150
  71.1222750  32.0884860  47.9789160  57.7857800  43.4284800  48.3008130
  57.4012590  42.7878470  48.8991090  58.0969990  44.1320920  48.8702860
  63.9354940  40.2761340  43.7816750  64.3025070  39.8019910  44.5278090
  63.7460000  41.1502910  44.1225090  56.7995430  35.0205030  39.9110220
  56.5142350  34.6560700  40.7488840  56.7374290  34.2885490  39.2973360
  61.7254310  39.3169980  46.1000960  61.4211380  40.1961960  46.3251320
  62.6800770  39.3769770  46.1358400  60.2536100  43.5230970  36.6967810
  59.4798360  42.9828590  36.5366530  60.9830730  43.0037580  36.3585570
  66.4734020  33.9134290  36.6323590  65.6598630  33.4147460  36.5568900
  66.2795970  34.7532540  36.2159940  66.3942880  42.5905390  48.3763200
  66.3280190  41.6701060  48.1220790  65.7648020  42.6880830  49.0907840
  69.1882410  38.2853940  34.9285750  70.0762030  38.5971170  34.7537090
  69.1587500  37.4126190  34.5366330  60.2973500  43.1911350  40.3346620
  60.8152170  42.3879610  40.2803510  59.8457520  43.1290490  41.1763450
  65.1843000  44.4577630  35.6073920  65.5258700  45.2019860  35.1117240
  64.3555710  44.7708750  35.9698750  57.7818040  40.1572720  47.2472320
  57.4232980  40.8226570  47.8345660  57.4872600  39.3256270  47.6184940
  60.9831160  40.6156960  50.1311870  60.6831300  40.7614140  49.2339690
  61.7542400  40.0562250  50.0385260  66.3259610  45.4125960  48.1267000
  66.3404150  44.4806920  47.9085910  65.6184710  45.4985720  48.7656770
  68.0670410  43.7793470  40.9719430  68.4194230  43.1821600  40.3120800
  67.1832740  43.4537700  41.1427680  64.1533690  44.5391160  38.3789840
  64.8404820  45.0860370  38.7597430  63.3666110  45.0831890  38.4139450
  63.4560900  41.5437190  37.9915200  63.9123680  42.3542440  38.2175390
  63.1049110  41.2260330  38.8233690  65.7593510  47.0543530  45.2207500
  66.4035730  47.2602910  45.8980920  66.1222950  46.2931930  44.7678350
  59.3572680  31.8874840  38.4637720  59.2287310  31.8792740  39.4122640
  58.5334700  32.2257930  38.1128730  67.0325590  45.0575880  43.9384950
  67.6747820  44.3569040  44.0517120  67.5574940  45.8374320  43.7581840
  70.8781310  45.3424500  33.6624090  70.6518890  44.6254940  34.2548730
  70.4877510  45.0936940  32.8245840  68.8063210  45.8570780  47.1421010
  69.1419450  46.4437470  47.8198930  67.8863550  45.7263490  47.3718800
  56.3566610  33.6465960  47.9244420  55.6425130  33.8462880  48.5297030
  56.7761650  32.8705530  48.2959220  70.4597560  43.2596440  35.3238250
  70.1719260  43.7209130  36.1116130  71.2549730  42.7994210  35.5922470
  56.6439200  47.6346220  48.9110950  56.7530320  46.6940960  48.7706340
  55.9919760  47.9000970  48.2624680  64.6351790  45.9062110  50.3109070
  64.3148660  45.1871350  50.8554760  63.9610150  46.5817180  50.3845130
  62.6765960  46.7522560  35.2542220  62.6676060  47.4852250  34.6386730
  61.7564320  46.5054140  35.3469180  58.2772600  41.9737450  35.9988980
  57.6700550  42.7136350  36.0084280  58.7521950  42.0636810  35.1727180
  67.8505390  36.1388270  45.6745870  68.2186210  35.3183480  46.0025440
  66.9903590  36.1990160  46.0901520  71.2167420  35.0945210  36.4833430
  70.5880580  35.1990880  35.7691660  70.7219340  35.3141990  37.2727310
  65.6625560  46.8150800  33.9167410  65.7637540  46.6114790  32.9869390
  64.7627300  46.5609080  34.1215190  63.1851450  37.3731160  37.8991310
  62.4767600  37.8417500  38.3404920  63.4695930  36.7153170  38.5336500
  64.8107380  38.7927860  45.8983840  65.3092630  39.2673680  46.5635690
  64.9530330  37.8691380  46.1053870  67.2166880  34.0981820  39.3387100
  67.0934660  34.1167950  38.3896610  68.1651440  34.1460760  39.4585500
  64.3043670  49.3337120  38.6115080  64.5585170  49.2958510  37.6894450
  63.3556150  49.2070450  38.6043330  61.3886470  35.6816240  35.2742020
  62.2377000  36.1186390  35.2082210  61.0217740  35.9936500  36.1014080
  70.3096250  40.2529000  40.1873590  69.3686390  40.2679230  40.3621280
  70.6240320  39.4664960  40.6333890  60.2877890  41.9348600  33.7477550
  61.0541160  41.8229960  34.3102980  60.3652580  41.2386570  33.0954320
  58.9824650  39.3673670  34.4310440  59.0628240  38.4201180  34.5427840
  59.8744400  39.6980550  34.5371100  59.7839360  49.5169060  41.5344980
  60.5201840  48.9684520  41.8053550  60.1680280  50.3825070  41.3950970
  56.6684840  45.5842630  37.4086490  55.7424620  45.8263770  37.3991900
  57.1341270  46.4116890  37.2871240  58.7897640  48.7015130  50.7230560
  59.5910370  49.0227180  51.1365960  58.2749460  48.3410710  51.4450470
  62.8941670  48.6899370  33.3570550  63.6870280  48.9788200  32.9052340
  62.3746020  48.2591540  32.6783030  67.6262270  44.8095000  50.6705970
  67.0200430  44.8326600  49.9301720  67.3216380  44.0778040  51.2073220
  69.0562640  48.5375290  49.2815380  70.0084390  48.4533310  49.2315620
  68.9090860  49.2017000  49.9549170  56.5095450  41.1888590  49.6666610
  57.0134470  40.6095870  50.2382840  55.7702870  41.4728820  50.2042980
  63.4119070  43.9102780  33.2212900  63.3069710  43.2955130  33.9474280
  63.2443290  43.3868670  32.4375910  63.5633390  42.5959580  49.2002130
  62.7979060  43.1644580  49.1156800  63.7449350  42.3035790  48.3070360
  66.6521800  42.9722810  33.8254890  66.1031900  43.4192110  34.4697630
  67.2741060  42.4672060  34.3492560  70.7056740  44.3264910  49.7577150
  71.4466210  44.6640670  49.2544610  69.9429420  44.4956970  49.2046920
  58.5418530  39.3318180  50.5616680  58.5823870  39.0332050  51.4701910
  59.3964030  39.7325790  50.4024200  62.3196920  41.9313730  35.7220190
  62.7413340  41.7653600  36.5651580  62.4447760  41.1213960  35.2275330
  60.4824340  37.9110280  48.5291170  59.9520800  37.4201230  47.9014510
  61.1512410  38.3394480  47.9949100  64.8324560  40.9551340  32.9697290
  65.3530220  40.2400360  32.6038440  65.4792960  41.5937210  33.2697800
  69.3802400  42.3779740  48.2932360  69.7943420  42.5324820  49.1422780
  68.4453400  42.5034960  48.4558140  69.8524570  39.7175900  50.2971510
  70.4345340  38.9628220  50.2091990  70.0286340  40.2483340  49.5202990
  60.9696640  34.8772650  48.6088460  60.8753510  34.2593400  47.8839330
  60.3894030  35.6038940  48.3818370  63.7358080  33.4345890  45.6415850
  63.2875380  33.4570150  44.7961400  63.1023280  33.0364910  46.2386150
  64.1417630  42.3300220  46.2628290  64.5605740  43.1732950  46.0904530
  63.2226260  42.4672260  46.0335070  66.4781530  40.0616400  47.6466130
  66.5977740  39.4657540  48.3860970  67.3375530  40.0986090  47.2267430
  68.8169430  40.6153590  46.2228640  68.2904650  41.1396210  45.6193780
  69.1600770  41.2480980  46.8538370  61.2155820  38.0046960  32.6678350
  61.0144880  37.1414320  33.0291690  61.0447870  37.9180320  31.7299950
  61.9925050  48.6353230  47.3786020  61.4546140  49.3599290  47.0594720
  62.2459010  48.1583570  46.5883360  63.2450300  36.6037750  48.9041950
  63.8349990  36.2953600  49.5919770  62.4270540  36.1317500  49.0601850
  68.0643730  36.2203560  49.1374970  67.3759250  35.5585100  49.0724960
  68.7849750  35.7741830  49.5823430  68.6944130  32.8155190  35.1965230
  68.9746420  31.9723090  35.5524650  67.9209860  33.0478300  35.7103980
  60.0138620  35.1047580  32.6556230  60.3164520  35.1115010  31.7475380
  60.7533210  34.7545440  33.1523890  64.8487260  49.8704440  47.6372670
  64.7745960  50.7739580  47.9445040  63.9466100  49.5516340  47.6094740
  63.2323550  34.0482200  33.6412430  62.8845550  33.3706190  33.0614880
  63.4336320  33.5871710  34.4555820  65.3972590  49.0362950  35.2599030
  66.2923380  49.3747920  35.2817790  65.4290220  48.3142360  34.6323310
  59.0368750  44.4090000  33.4886030  59.4743620  44.9519670  34.1443610
  59.5216480  43.5836950  33.4982370  60.8476470  45.5288040  38.6008260
  60.5472010  45.4053010  39.5012170  60.7413960  44.6696630  38.1923990
  56.7404760  48.0649620  43.6787920  56.3035750  48.2450420  44.5112070
  57.3082440  48.8224240  43.5369640  56.5729190  40.5769850  40.0376800
  55.9178030  40.3081490  39.3936500  57.4107140  40.4674330  39.5878780
  71.0618580  44.2918600  46.0641390  70.2478420  44.7215760  46.3267180
  71.4692780  44.9037010  45.4510440  69.5219630  35.3711140  34.2595290
  69.9404510  35.1842120  33.4191950  69.2155690  34.5190190  34.5698220
  57.6105120  40.9622420  44.5780140  57.9778160  40.8749820  45.4576160
  57.0415940  40.1988970  44.4787000  57.1621120  37.8731510  48.4838560
  56.2677170  37.8398270  48.8232270  57.7018670  38.0718300  49.2489810
  58.3294480  36.8434320  33.8896510  59.0386180  36.4217540  33.4043790
  57.6134420  36.9109550  33.2579860  57.9768640  32.8973650  32.9299160
  58.6996770  33.4382590  33.2480380  58.2493160  32.6237070  32.0540700
  57.6660830  32.1479840  42.8321780  58.3137020  31.5977220  42.3916940
  58.0862670  32.4022990  43.6537590  71.1194630  49.0437200  39.5909660
  71.7153700  48.7221770  38.9144080  71.3772780  48.5709020  40.3822930
  57.4192830  32.3035510  45.5747100  57.0707650  32.7599330  46.3405280
  57.0880530  31.4092640  45.6569530  59.0257200  45.4755110  49.7400290
  58.9826830  45.1048020  50.6214750  59.1568210  46.4132680  49.8802110
  62.7263230  47.0314700  45.3410010  62.4854590  47.2989260  44.4540530
  63.6665870  47.2020430  45.3960870  64.9317650  33.4947390  49.0966520
  64.8706540  34.0869220  49.8461930  65.8718030  33.3873350  48.9516780
  67.5692210  33.1517450  48.7358810  68.1832620  33.4696740  48.0739890
  68.1141770  32.6666040  49.3554670  58.0913470  31.8311710  48.8497870
  58.6396460  31.6499760  48.0863980  58.1568780  31.0405820  49.3854180
  58.8645230  48.4217360  46.8598070  58.2705550  48.2902060  47.5988110
  58.8569070  47.5855500  46.3940170  68.3100250  31.7149590  45.0628100
  67.4360090  32.0484700  44.8601030  68.2011000  31.2422770  45.8879970
  69.2172230  33.9220460  46.4469820  68.8885590  33.1072220  46.0671550
  70.1654530  33.8790270  46.3235510  71.6706840  49.6932500  43.4207390
  71.2109810  50.4448310  43.0465410  71.0419300  48.9738970  43.3622190
  58.4957460  45.7875740  45.8106110  57.7691520  45.1681030  45.7432060
  58.5566610  46.1816350  44.9404190  62.1002560  48.0020740  42.5955520
  62.6167580  47.3908100  42.0703780  62.7499940  48.5049520  43.0866530
  64.8398060  48.8929230  43.4224500  65.1275870  48.6383530  42.5457510
  65.3521280  48.3406590  44.0130070  66.0575070  32.6319430  44.0021010
  65.2746860  33.1064930  44.2817770  65.7638000  31.7274260  43.8934190
  70.6096140  33.3342530  42.0470100  71.0504230  33.2787630  41.1991700
  70.3403730  34.2500540  42.1180280  63.9429290  35.0506180  39.5137040
  63.1303800  34.6763070  39.1732920  64.4470930  34.2951260  39.8158230
  68.4454270  31.7148630  40.7520110  69.0483640  32.2868840  41.2268630
  67.7047260  32.2788070  40.5294010  59.7740630  33.4630960  35.0636700
  60.3033390  32.6760760  34.9344650  60.4068950  34.1422150  35.2972230
  61.9678470  33.2006100  38.1182090  61.3381210  32.4993410  38.2852220
  61.4283610  33.9610230  37.9015250  64.9070420  49.8145330  50.7892700
  65.8337730  49.5789600  50.8328660  64.8920850  50.6417330  50.3078730
  62.0934030  32.4790080  50.5534580  61.8118300  32.9823680  49.7895400
  62.4753730  31.6811830  50.1876710  60.9843130  49.7465740  35.3402260
  61.7161950  49.4625020  34.7926150  61.2436800  49.5079020  36.2301640
  60.1457920  45.8630470  35.3448590  59.5166800  46.3315570  35.8934420
  60.2605750  45.0179690  35.7794780  68.6949490  31.8943660  51.1315050
  68.5814940  32.2138270  52.0266570  69.5119230  32.2956170  50.8352330
  67.6007640  39.9136130  21.4949790  67.5201690  38.9990740  21.2241500
  67.1872060  40.4103200  20.7889500  65.7325680  41.6915150  23.3759060
  64.9567780  41.2115590  23.6657630  66.3838610  41.0120800  23.2015220
  59.7491510  42.0034960  24.2534820  58.9176390  41.7483670  24.6531330
  60.3572490  42.0745730  24.9892740  69.7533110  46.0975340  22.1558190
  69.2914640  45.3262580  22.4845360  70.5658660  46.1241410  22.6610640
  59.7292770  46.0375050  24.4492840  60.0320810  45.1472790  24.2703060
  60.4736360  46.5945270  24.2215090  58.1583460  36.9636850  18.0377210
  57.2700160  37.3052820  17.9357090  58.4424650  36.7637170  17.1458040
  56.1216470  39.5642500  23.9216910  56.6932580  38.7964700  23.9220550
  56.1218010  39.8631260  23.0123520  65.9796420  48.3833350  21.7762180
  65.3607860  48.8390850  21.2056620  66.8348200  48.5384810  21.3751880
  65.1734670  44.3672340  23.3829220  65.1042950  43.4262280  23.2218350
  65.9354530  44.4573750  23.9551790  57.3641340  34.9726860  25.7085840
  57.1844180  34.0752610  25.9888600  56.9621420  35.5198730  26.3832790
  66.2039840  37.1742720  23.6098150  66.5804660  36.3014600  23.4971820
  66.1059350  37.5101420  22.7188590  60.3344850  35.5468350  19.0715590
  60.4411600  36.4472080  19.3784350  59.4237210  35.4986320  18.7810240
  69.9863960  34.6693160  20.5426490  70.8073580  34.1789730  20.5851970
  70.0198040  35.2590820  21.2958330  57.9828010  37.4687360  24.3168180
  58.6638120  37.7325730  24.9355580  57.6676060  36.6288230  24.6506190
  62.1752580  38.5154720  23.4040770  62.6830800  39.0135690  24.0445790
  62.7065820  37.7389920  23.2280130  60.4588680  33.1553280  27.6704190
  60.4607120  33.6725670  26.8650090  59.6292990  32.6783460  27.6474120
  66.8459770  43.2672590  19.1694090  66.2277040  43.7322040  18.6056810
  67.3583020  43.9600070  19.5863600  61.7091530  42.7948460  25.8477690
  61.3760910  43.4217380  26.4898760  61.8858210  43.3210340  25.0679360
  70.2225440  36.6093540  23.3154030  69.5181010  36.8978430  23.8957140
  70.5837600  37.4193650  22.9553590  60.1404010  34.8663240  25.6774640
  60.4820820  35.7105290  25.3828510  59.2019820  35.0146980  25.7939980
  60.9210630  44.7629260  27.6626870  61.5384630  45.4380340  27.3811320
  60.0603750  45.1717240  27.5714370  56.2142970  43.9529120  16.5433720
  55.8370950  44.4416220  15.8118620  56.4716040  44.6254400  17.1740250
  63.8231900  32.3545510  22.0019230  64.1306880  31.7992400  21.2854730
  62.8932600  32.4889970  21.8192220  69.3746960  48.0712800  24.2926690
  69.3874120  47.6675090  23.4248950  68.8222180  48.8460090  24.1888120
  70.6692380  44.7929020  19.3816860  70.5588710  43.8503350  19.5066280
  70.6660630  45.1544660  20.2679620  68.7732400  42.9742640  25.6209300
  69.1901190  42.7602750  24.7862760  69.4972220  43.2315430  26.1917920
  66.2112660  40.4194340  18.7379350  65.2841940  40.3531720  18.9667820
  66.3637480  41.3574470  18.6234590  66.1981740  36.6911340  15.7346510
  65.2585410  36.8525300  15.8198970  66.5165000  37.4097020  15.1882500
  70.2409950  41.9814640  19.2414600  69.6222370  41.6434190  18.5940900
  70.2234400  41.3374400  19.9493790  69.6836510  38.1599180  26.6580410
  69.2707690  38.9852890  26.9120400  68.9512460  37.5744220  26.4656770
  61.8169300  40.9459080  21.5199080  61.4126300  40.2336330  21.0244980
  61.9032420  40.6012320  22.4087120  62.2851000  44.6326640  23.6838290
  61.9879290  44.0272110  23.0046070  63.2350820  44.6703950  23.5727650
  60.5297920  37.7202290  25.2998120  61.0812510  37.8297630  24.5251370
  61.0441430  38.0939890  26.0153350  70.3736610  48.2058510  27.3461390
  69.8967170  49.0130700  27.1534000  69.6898400  47.5536840  27.4987600
  61.3769430  44.3708330  30.3346090  60.4797960  44.5948300  30.5819490
  61.4022300  44.4943270  29.3857490  68.4174650  41.2201450  16.2487350
  68.8567930  40.3823880  16.1025170  69.1303070  41.8530850  16.3351490
  60.2040650  41.2421650  28.9103460  60.0648420  42.1144450  29.2790860
  59.3222010  40.8994460  28.7651400  66.5270030  46.1597520  20.2168590
  66.9665940  46.9021850  19.8023980  66.4656920  46.4024090  21.1407550
  62.0021000  47.1843350  31.1188610  61.9736430  47.5886300  30.2517040
  61.8385970  46.2553710  30.9560210  58.5173930  39.8404060  19.0205730
  58.3971530  40.5666150  18.4087000  58.2074820  39.0706970  18.5433640
  57.4006930  44.7119390  21.2380550  56.9935010  44.8533980  20.3834150
  58.2919940  44.4279550  21.0351760  67.2185810  48.8611300  28.1447600
  67.7330480  48.7719310  28.9470030  66.3754890  49.2071000  28.4375510
  69.1940210  49.1466640  17.5731600  69.0341350  48.8569580  18.4713430
  69.0286920  48.3706770  17.0376830  61.6728590  48.9265170  19.3503220
  61.4971070  48.0100710  19.1371020  60.8184330  49.2852460  19.5901020
  68.8966340  46.6554200  16.1329600  68.2031500  46.6531490  15.4731880
  69.6389200  46.2313520  15.7023770  68.4616270  48.2816910  20.2078090
  68.9173220  47.5006290  20.5216710  68.8008790  48.9923730  20.7519270
  60.9837590  33.1839130  22.4029400  60.5405740  33.9648670  22.0713920
  61.5422580  33.5069020  23.1100340  65.2707400  36.0507650  28.0064720
  64.8086770  36.2590670  28.8184660  64.8685510  35.2367000  27.7035390
  70.2711910  37.2716600  29.1361380  69.4205500  36.9722350  29.4570450
  70.1113700  37.5158610  28.2245200  67.3661620  38.7718350  31.2360170
  67.6915030  37.9382100  30.8962400  68.1541950  39.2946870  31.3838500
  64.0996410  32.8049830  17.2835230  63.4750590  32.8009700  18.0088540
  64.0126530  31.9380790  16.8871200  63.0213490  33.7286460  24.2619000
  63.3185820  34.6349290  24.1811020  63.5699050  33.2405240  23.6478570
  60.7751810  38.3072700  20.1310650  60.5492730  38.0909870  21.0357270
  59.9944340  38.7401160  19.7856620  68.0049570  38.3136070  18.7301300
  67.4058460  39.0371870  18.5464920  68.5529180  38.2512850  17.9477750
  63.2151020  39.2058280  30.7970920  63.1194620  38.2653010  30.6471320
  64.0583000  39.4273350  30.4018990  66.6114440  36.9499610  20.7604580
  67.0044010  37.2671810  19.9473270  66.9731290  36.0711490  20.8749100
  64.9206610  35.7006920  32.0201440  64.2304930  35.5079120  32.6547530
  65.6638910  35.9841560  32.5525740  55.8348840  37.4820530  14.1937500
  55.7523510  38.4251290  14.3352490  55.4831900  37.3395440  13.3149850
  67.1969580  39.5405360  24.8555360  66.4650700  40.0492170  25.2045460
  66.7993920  38.7235340  24.5544140  63.6346970  36.2159560  23.2607850
  63.6383030  35.7749510  22.4112390  64.5298090  36.5376890  23.3679670
  59.4849350  36.0986050  22.2202060  59.1449400  36.5761280  22.9769110
  58.7226670  35.6451170  21.8603160  63.6967120  37.2171640  16.2514610
  63.8179940  37.1758120  17.2000430  63.3115630  38.0795790  16.0961340
  67.6595490  34.9939040  24.2678300  67.6768230  35.4447690  25.1120150
  67.4111070  34.0944680  24.4811740  62.7088620  39.5272780  15.6497910
  62.1405520  39.0791030  15.0233820  63.4177620  39.8865560  15.1163060
  71.0866240  32.4071220  30.1064680  71.4112010  31.6760880  30.6322660
  71.1222750  32.0884860  29.2045670  57.7857800  43.4284800  29.5264640
  57.4012590  42.7878470  30.1247600  58.0969990  44.1320920  30.0959370
  63.9354940  40.2761340  25.0073260  64.3025070  39.8019910  25.7534600
  63.7460000  41.1502910  25.3481600  56.7995430  35.0205030  21.1366730
  56.5142350  34.6560700  21.9745350  56.7374290  34.2885490  20.5229870
  61.7254310  39.3169980  27.3257470  61.4211380  40.1961960  27.5507830
  62.6800770  39.3769770  27.3614910  60.2536100  43.5230970  17.9224320
  59.4798360  42.9828590  17.7623040  60.9830730  43.0037580  17.5842080
  66.4734020  33.9134290  17.8580100  65.6598630  33.4147460  17.7825410
  66.2795970  34.7532540  17.4416450  66.3942880  42.5905390  29.6019710
  66.3280190  41.6701060  29.3477300  65.7648020  42.6880830  30.3164350
  69.1882410  38.2853940  16.1542260  70.0762030  38.5971170  15.9793600
  69.1587500  37.4126190  15.7622840  60.2973500  43.1911350  21.5603130
  60.8152170  42.3879610  21.5060020  59.8457520  43.1290490  22.4019960
  65.1843000  44.4577630  16.8330430  65.5258700  45.2019860  16.3373750
  64.3555710  44.7708750  17.1955260  57.7818040  40.1572720  28.4728830
  57.4232980  40.8226570  29.0602170  57.4872600  39.3256270  28.8441450
  60.9831160  40.6156960  31.3568380  60.6831300  40.7614140  30.4596200
  61.7542400  40.0562250  31.2641770  66.3259610  45.4125960  29.3523510
  66.3404150  44.4806920  29.1342420  65.6184710  45.4985720  29.9913280
  68.0670410  43.7793470  22.1975940  68.4194230  43.1821600  21.5377310
  67.1832740  43.4537700  22.3684190  64.1533690  44.5391160  19.6046350
  64.8404820  45.0860370  19.9853940  63.3666110  45.0831890  19.6395960
  56.2926090  40.1563980  15.0963430  57.1620940  40.4388780  15.3799350
  55.8016410  40.9699850  14.9812240  63.4560900  41.5437190  19.2171710
  63.9123680  42.3542440  19.4431900  63.1049110  41.2260330  20.0490200
  65.7593510  47.0543530  26.4464010  66.4035730  47.2602910  27.1237430
  66.1222950  46.2931930  25.9934860  59.3572680  31.8874840  19.6894230
  59.2287310  31.8792740  20.6379150  58.5334700  32.2257930  19.3385240
  67.0325590  45.0575880  25.1641460  67.6747820  44.3569040  25.2773630
  67.5574940  45.8374320  24.9838350  70.8781310  45.3424500  14.8880600
  70.6518890  44.6254940  15.4805240  70.4877510  45.0936940  14.0502350
  68.8063210  45.8570780  28.3677520  69.1419450  46.4437470  29.0455440
  67.8863550  45.7263490  28.5975310  56.6597340  49.3691360  15.6625060
  57.0194980  49.9680700  15.0082330  56.5189680  49.9151250  16.4360090
  70.4597560  43.2596440  16.5494760  70.1719260  43.7209130  17.3372640
  71.2549730  42.7994210  16.8178980  64.6351790  45.9062110  31.5365580
  64.3148660  45.1871350  32.0811270  63.9610150  46.5817180  31.6101640
  62.6765960  46.7522560  16.4798730  62.6676060  47.4852250  15.8643240
  61.7564320  46.5054140  16.5725690  58.2772600  41.9737450  17.2245490
  57.6700550  42.7136350  17.2340790  58.7521950  42.0636810  16.3983690
  67.8505390  36.1388270  26.9002380  68.2186210  35.3183480  27.2281950
  66.9903590  36.1990160  27.3158030  71.2167420  35.0945210  17.7089940
  70.5880580  35.1990880  16.9948170  70.7219340  35.3141990  18.4983820
  65.6625560  46.8150800  15.1423920  65.7637540  46.6114790  14.2125900
  64.7627300  46.5609080  15.3471700  63.1851450  37.3731160  19.1247820
  62.4767600  37.8417500  19.5661430  63.4695930  36.7153170  19.7593010
  64.8107380  38.7927860  27.1240350  65.3092630  39.2673680  27.7892200
  64.9530330  37.8691380  27.3310380  67.2166880  34.0981820  20.5643610
  67.0934660  34.1167950  19.6153120  68.1651440  34.1460760  20.6842010
  64.3043670  49.3337120  19.8371590  64.5585170  49.2958510  18.9150960
  63.3556150  49.2070450  19.8299840  61.3886470  35.6816240  16.4998530
  62.2377000  36.1186390  16.4338720  61.0217740  35.9936500  17.3270590
  70.3096250  40.2529000  21.4130100  69.3686390  40.2679230  21.5877790
  70.6240320  39.4664960  21.8590400  60.2877890  41.9348600  14.9734060
  61.0541160  41.8229960  15.5359490  60.3652580  41.2386570  14.3210830
  58.9824650  39.3673670  15.6566950  59.0628240  38.4201180  15.7684350
  59.8744400  39.6980550  15.7627610  56.6684840  45.5842630  18.6343000
  55.7424620  45.8263770  18.6248410  57.1341270  46.4116890  18.5127750
  62.8941670  48.6899370  14.5827060  63.6870280  48.9788200  14.1308850
  62.3746020  48.2591540  13.9039540  67.6262270  44.8095000  31.8962480
  67.0200430  44.8326600  31.1558230  67.3216380  44.0778040  32.4329730
  69.0562640  48.5375290  30.5071890  70.0084390  48.4533310  30.4572130
  68.9090860  49.2017000  31.1805680  56.5095450  41.1888590  30.8923120
  57.0134470  40.6095870  31.4639350  55.7702870  41.4728820  31.4299490
  63.4119070  43.9102780  14.4469410  63.3069710  43.2955130  15.1730790
  63.2443290  43.3868670  13.6632420  63.5633390  42.5959580  30.4258640
  62.7979060  43.1644580  30.3413310  63.7449350  42.3035790  29.5326870
  66.6521800  42.9722810  15.0511400  66.1031900  43.4192110  15.6954140
  67.2741060  42.4672060  15.5749070  70.7056740  44.3264910  30.9833660
  71.4466210  44.6640670  30.4801120  69.9429420  44.4956970  30.4303430
  62.3196920  41.9313730  16.9476700  62.7413340  41.7653600  17.7908090
  62.4447760  41.1213960  16.4531840  60.4824340  37.9110280  29.7547680
  59.9520800  37.4201230  29.1271020  61.1512410  38.3394480  29.2205610
  64.8324560  40.9551340  14.1953800  65.3530220  40.2400360  13.8294950
  65.4792960  41.5937210  14.4954310  69.3802400  42.3779740  29.5188870
  69.7943420  42.5324820  30.3679290  68.4453400  42.5034960  29.6814650
  69.8524570  39.7175900  31.5228020  70.4345340  38.9628220  31.4348500
  70.0286340  40.2483340  30.7459500  60.9696640  34.8772650  29.8344970
  60.8753510  34.2593400  29.1095840  60.3894030  35.6038940  29.6074880
  63.7358080  33.4345890  26.8672360  63.2875380  33.4570150  26.0217910
  63.1023280  33.0364910  27.4642660  64.1417630  42.3300220  27.4884800
  64.5605740  43.1732950  27.3161040  63.2226260  42.4672260  27.2591580
  66.4781530  40.0616400  28.8722640  66.5977740  39.4657540  29.6117480
  67.3375530  40.0986090  28.4523940  68.8169430  40.6153590  27.4485150
  68.2904650  41.1396210  26.8450290  69.1600770  41.2480980  28.0794880
  61.2155820  38.0046960  13.8934860  61.0144880  37.1414320  14.2548200
  61.0447870  37.9180320  12.9556460  61.9925050  48.6353230  28.6042530
  61.4546140  49.3599290  28.2851230  62.2459010  48.1583570  27.8139870
  63.2450300  36.6037750  30.1298460  63.8349990  36.2953600  30.8176280
  62.4270540  36.1317500  30.2858360  68.0643730  36.2203560  30.3631480
  67.3759250  35.5585100  30.2981470  68.7849750  35.7741830  30.8079940
  68.6944130  32.8155190  16.4221740  68.9746420  31.9723090  16.7781160
  67.9209860  33.0478300  16.9360490  60.0138620  35.1047580  13.8812740
  60.3164520  35.1115010  12.9731890  60.7533210  34.7545440  14.3780400
  64.8487260  49.8704440  28.8629180  64.7745960  50.7739580  29.1701550
  63.9466100  49.5516340  28.8351250  63.2323550  34.0482200  14.8668940
  62.8845550  33.3706190  14.2871390  63.4336320  33.5871710  15.6812330
  65.3972590  49.0362950  16.4855540  66.2923380  49.3747920  16.5074300
  65.4290220  48.3142360  15.8579820  59.0368750  44.4090000  14.7142540
  59.4743620  44.9519670  15.3700120  59.5216480  43.5836950  14.7238880
  60.8476470  45.5288040  19.8264770  60.5472010  45.4053010  20.7268680
  60.7413960  44.6696630  19.4180500  56.5729190  40.5769850  21.2633310
  55.9178030  40.3081490  20.6193010  57.4107140  40.4674330  20.8135290
  71.0618580  44.2918600  27.2897900  70.2478420  44.7215760  27.5523690
  71.4692780  44.9037010  26.6766950  69.5219630  35.3711140  15.4851800
  69.9404510  35.1842120  14.6448460  69.2155690  34.5190190  15.7954730
  57.6105120  40.9622420  25.8036650  57.9778160  40.8749820  26.6832670
  57.0415940  40.1988970  25.7043510  55.7867270  37.7868780  17.2058640
  54.8831350  38.0498980  17.0310300  56.2707890  38.0579950  16.4258600
  58.3294480  36.8434320  15.1153020  59.0386180  36.4217540  14.6300300
  57.6134420  36.9109550  14.4836370  57.9768640  32.8973650  14.1555670
  58.6996770  33.4382590  14.4736890  58.2493160  32.6237070  13.2797210
  57.6660830  32.1479840  24.0578290  58.3137020  31.5977220  23.6173450
  58.0862670  32.4022990  24.8794100  71.1194630  49.0437200  20.8166170
  71.7153700  48.7221770  20.1400590  71.3772780  48.5709020  21.6079440
  57.4192830  32.3035510  26.8003610  57.0707650  32.7599330  27.5661790
  57.0880530  31.4092640  26.8826040  59.0257200  45.4755110  30.9656800
  58.9826830  45.1048020  31.8471260  59.1568210  46.4132680  31.1058620
  62.7263230  47.0314700  26.5666520  62.4854590  47.2989260  25.6797040
  63.6665870  47.2020430  26.6217380  64.9317650  33.4947390  30.3223030
  64.8706540  34.0869220  31.0718440  65.8718030  33.3873350  30.1773290
  67.5692210  33.1517450  29.9615320  68.1832620  33.4696740  29.2996400
  68.1141770  32.6666040  30.5811180  58.0913470  31.8311710  30.0754380
  58.6396460  31.6499760  29.3120490  58.1568780  31.0405820  30.6110690
  58.8645230  48.4217360  28.0854580  58.2705550  48.2902060  28.8244620
  58.8569070  47.5855500  27.6196680  68.3100250  31.7149590  26.2884610
  67.4360090  32.0484700  26.0857540  68.2011000  31.2422770  27.1136480
  69.2172230  33.9220460  27.6726330  68.8885590  33.1072220  27.2928060
  70.1654530  33.8790270  27.5492020  71.6706840  49.6932500  24.6463900
  71.2109810  50.4448310  24.2721920  71.0419300  48.9738970  24.5878700
  62.1002560  48.0020740  23.8212030  62.6167580  47.3908100  23.2960290
  62.7499940  48.5049520  24.3123040  64.8398060  48.8929230  24.6481010
  65.1275870  48.6383530  23.7714020  65.3521280  48.3406590  25.2386580
  66.0575070  32.6319430  25.2277520  65.2746860  33.1064930  25.5074280
  65.7638000  31.7274260  25.1190700  70.6096140  33.3342530  23.2726610
  71.0504230  33.2787630  22.4248210  70.3403730  34.2500540  23.3436790
  57.4015480  32.9366910  17.7491240  58.1594840  33.0495790  17.1755270
  56.9392650  33.7736110  17.7034670  63.9429290  35.0506180  20.7393550
  63.1303800  34.6763070  20.3989430  64.4470930  34.2951260  21.0414740
  68.4454270  31.7148630  21.9776620  69.0483640  32.2868840  22.4525140
  67.7047260  32.2788070  21.7550520  58.3850160  47.7983360  17.6909520
  57.8597780  48.1791390  16.9871480  58.3094740  48.4234130  18.4119230
  59.7740630  33.4630960  16.2893210  60.3033390  32.6760760  16.1601160
  60.4068950  34.1422150  16.5228740  61.9678470  33.2006100  19.3438600
  61.3381210  32.4993410  19.5108730  61.4283610  33.9610230  19.1271760
  64.9070420  49.8145330  32.0149210  65.8337730  49.5789600  32.0585170
  64.8920850  50.6417330  31.5335240  62.0934030  32.4790080  31.7791090
  61.8118300  32.9823680  31.0151910  62.4753730  31.6811830  31.4133220
  60.9843130  49.7465740  16.5658770  61.7161950  49.4625020  16.0182660
  61.2436800  49.5079020  17.4558150  60.1457920  45.8630470  16.5705100
  59.5166800  46.3315570  17.1190930  60.2605750  45.0179690  17.0051290
  68.6949490  31.8943660  32.3571560  68.5814940  32.2138270  33.2523080
  69.5119230  32.2956170  32.0608840  67.6007640  39.9136130   2.7206300
  67.5201690  38.9990740   2.4498010  67.1872060  40.4103200   2.0146010
  65.7325680  41.6915150   4.6015570  64.9567780  41.2115590   4.8914140
  66.3838610  41.0120800   4.4271730  59.7491510  42.0034960   5.4791330
  58.9176390  41.7483670   5.8787840  60.3572490  42.0745730   6.2149250
  69.7533110  46.0975340   3.3814700  69.2914640  45.3262580   3.7101870
  70.5658660  46.1241410   3.8867150  59.7292770  46.0375050   5.6749350
  60.0320810  45.1472790   5.4959570  60.4736360  46.5945270   5.4471600
  56.1216470  39.5642500   5.1473420  56.6932580  38.7964700   5.1477060
  56.1218010  39.8631260   4.2380030  65.9796420  48.3833350   3.0018690
  65.3607860  48.8390850   2.4313130  66.8348200  48.5384810   2.6008390
  65.1734670  44.3672340   4.6085730  65.1042950  43.4262280   4.4474860
  65.9354530  44.4573750   5.1808300  57.3641340  34.9726860   6.9342350
  57.1844180  34.0752610   7.2145110  56.9621420  35.5198730   7.6089300
  66.2039840  37.1742720   4.8354660  66.5804660  36.3014600   4.7228330
  66.1059350  37.5101420   3.9445100  69.9863960  34.6693160   1.7683000
  70.8073580  34.1789730   1.8108480  70.0198040  35.2590820   2.5214840
  57.9828010  37.4687360   5.5424690  58.6638120  37.7325730   6.1612090
  57.6676060  36.6288230   5.8762700  62.1752580  38.5154720   4.6297280
  62.6830800  39.0135690   5.2702300  62.7065820  37.7389920   4.4536640
  60.4588680  33.1553280   8.8960700  60.4607120  33.6725670   8.0906600
  59.6292990  32.6783460   8.8730630  61.7091530  42.7948460   7.0734200
  61.3760910  43.4217380   7.7155270  61.8858210  43.3210340   6.2935870
  70.2225440  36.6093540   4.5410540  69.5181010  36.8978430   5.1213650
  70.5837600  37.4193650   4.1810100  60.1404010  34.8663240   6.9031150
  60.4820820  35.7105290   6.6085020  59.2019820  35.0146980   7.0196490
  60.9210630  44.7629260   8.8883380  61.5384630  45.4380340   8.6067830
  60.0603750  45.1717240   8.7970880  63.8231900  32.3545510   3.2275740
  64.1306880  31.7992400   2.5111240  62.8932600  32.4889970   3.0448730
  69.3746960  48.0712800   5.5183200  69.3874120  47.6675090   4.6505460
  68.8222180  48.8460090   5.4144630  68.7732400  42.9742640   6.8465810
  69.1901190  42.7602750   6.0119270  69.4972220  43.2315430   7.4174430
  69.6836510  38.1599180   7.8836920  69.2707690  38.9852890   8.1376910
  68.9512460  37.5744220   7.6913280  61.8169300  40.9459080   2.7455590
  61.4126300  40.2336330   2.2501490  61.9032420  40.6012320   3.6343630
  62.2851000  44.6326640   4.9094800  61.9879290  44.0272110   4.2302580
  63.2350820  44.6703950   4.7984160  60.5297920  37.7202290   6.5254630
  61.0812510  37.8297630   5.7507880  61.0441430  38.0939890   7.2409860
  70.3736610  48.2058510   8.5717900  69.8967170  49.0130700   8.3790510
  69.6898400  47.5536840   8.7244110  61.3769430  44.3708330  11.5602600
  60.4797960  44.5948300  11.8076000  61.4022300  44.4943270  10.6114000
  60.2040650  41.2421650  10.1359970  60.0648420  42.1144450  10.5047370
  59.3222010  40.8994460   9.9907910  62.0021000  47.1843350  12.3445120
  61.9736430  47.5886300  11.4773550  61.8385970  46.2553710  12.1816720
  56.1559300  43.0119200   6.0530880  56.2339720  43.1467970   5.1086600
  56.7700980  42.3035090   6.2459000  67.2185810  48.8611300   9.3704110
  67.7330480  48.7719310  10.1726540  66.3754890  49.2071000   9.6632020
  56.2118820  44.0533370   8.5925340  56.3749860  43.5838730   7.7744710
  56.6771270  43.5456930   9.2574180  60.9837590  33.1839130   3.6285910
  60.5405740  33.9648670   3.2970430  61.5422580  33.5069020   4.3356850
  65.2707400  36.0507650   9.2321230  64.8086770  36.2590670  10.0441170
  64.8685510  35.2367000   8.9291900  70.2711910  37.2716600  10.3617890
  69.4205500  36.9722350  10.6826960  70.1113700  37.5158610   9.4501710
  67.3661620  38.7718350  12.4616680  67.6915030  37.9382100  12.1218910
  68.1541950  39.2946870  12.6095010  63.0213490  33.7286460   5.4875510
  63.3185820  34.6349290   5.4067530  63.5699050  33.2405240   4.8735080
  63.2151020  39.2058280  12.0227430  63.1194620  38.2653010  11.8727830
  64.0583000  39.4273350  11.6275500  58.3461560  35.6171950  10.1761210
  57.9524950  36.4647160  10.3833990  57.6579960  34.9798320  10.3669850
  64.9206610  35.7006920  13.2457950  64.2304930  35.5079120  13.8804040
  65.6638910  35.9841560  13.7782250  55.6478610  33.5400410   4.2091290
  55.3591660  34.1103270   4.9216270  56.3924370  33.0604860   4.5722520
  67.1969580  39.5405360   6.0811870  66.4650700  40.0492170   6.4301970
  66.7993920  38.7235340   5.7800650  63.6346970  36.2159560   4.4864360
  63.6383030  35.7749510   3.6368900  64.5298090  36.5376890   4.5936180
  59.4849350  36.0986050   3.4458570  59.1449400  36.5761280   4.2025620
  58.7226670  35.6451170   3.0859670  67.6595490  34.9939040   5.4934810
  67.6768230  35.4447690   6.3376660  67.4111070  34.0944680   5.7068250
  71.0866240  32.4071220  11.3321190  71.4112010  31.6760880  11.8579170
  71.1222750  32.0884860  10.4302180  57.7857800  43.4284800  10.7521150
  57.4012590  42.7878470  11.3504110  58.0969990  44.1320920  11.3215880
  63.9354940  40.2761340   6.2329770  64.3025070  39.8019910   6.9791110
  63.7460000  41.1502910   6.5738110  56.7995430  35.0205030   2.3623240
  56.5142350  34.6560700   3.2001860  56.7374290  34.2885490   1.7486380
  61.7254310  39.3169980   8.5513980  61.4211380  40.1961960   8.7764340
  62.6800770  39.3769770   8.5871420  66.3942880  42.5905390  10.8276220
  66.3280190  41.6701060  10.5733810  65.7648020  42.6880830  11.5420860
  60.2973500  43.1911350   2.7859640  60.8152170  42.3879610   2.7316530
  59.8457520  43.1290490   3.6276470  57.7818040  40.1572720   9.6985340
  57.4232980  40.8226570  10.2858680  57.4872600  39.3256270  10.0697960
  60.9831160  40.6156960  12.5824890  60.6831300  40.7614140  11.6852710
  61.7542400  40.0562250  12.4898280  66.3259610  45.4125960  10.5780020
  66.3404150  44.4806920  10.3598930  65.6184710  45.4985720  11.2169790
  68.0670410  43.7793470   3.4232450  68.4194230  43.1821600   2.7633820
  67.1832740  43.4537700   3.5940700  65.7593510  47.0543530   7.6720520
  66.4035730  47.2602910   8.3493940  66.1222950  46.2931930   7.2191370
  67.0325590  45.0575880   6.3897970  67.6747820  44.3569040   6.5030140
  67.5574940  45.8374320   6.2094860  68.8063210  45.8570780   9.5934030
  69.1419450  46.4437470  10.2711950  67.8863550  45.7263490   9.8231820
  56.3566610  33.6465960  10.3757440  55.6425130  33.8462880  10.9810050
  56.7761650  32.8705530  10.7472240  56.6439200  47.6346220  11.3623970
  56.7530320  46.6940960  11.2219360  55.9919760  47.9000970  10.7137700
  64.6351790  45.9062110  12.7622090  64.3148660  45.1871350  13.3067780
  63.9610150  46.5817180  12.8358150  67.8505390  36.1388270   8.1258890
  68.2186210  35.3183480   8.4538460  66.9903590  36.1990160   8.5414540
  64.8107380  38.7927860   8.3496860  65.3092630  39.2673680   9.0148710
  64.9530330  37.8691380   8.5566890  70.3096250  40.2529000   2.6386610
  69.3686390  40.2679230   2.8134300  70.6240320  39.4664960   3.0846910
  59.7839360  49.5169060   3.9858000  60.5201840  48.9684520   4.2566570
  60.1680280  50.3825070   3.8463990  58.7897640  48.7015130  13.1743580
  59.5910370  49.0227180  13.5878980  58.2749460  48.3410710  13.8963490
  67.6262270  44.8095000  13.1218990  67.0200430  44.8326600  12.3814740
  67.3216380  44.0778040  13.6586240  69.0562640  48.5375290  11.7328400
  70.0084390  48.4533310  11.6828640  68.9090860  49.2017000  12.4062190
  56.5095450  41.1888590  12.1179630  57.0134470  40.6095870  12.6895860
  55.7702870  41.4728820  12.6556000  63.5633390  42.5959580  11.6515150
  62.7979060  43.1644580  11.5669820  63.7449350  42.3035790  10.7583380
  70.7056740  44.3264910  12.2090170  71.4466210  44.6640670  11.7057630
  69.9429420  44.4956970  11.6559940  58.5418530  39.3318180  13.0129700
  58.5823870  39.0332050  13.9214930  59.3964030  39.7325790  12.8537220
  60.4824340  37.9110280  10.9804190  59.9520800  37.4201230  10.3527530
  61.1512410  38.3394480  10.4462120  69.3802400  42.3779740  10.7445380
  69.7943420  42.5324820  11.5935800  68.4453400  42.5034960  10.9071160
  69.8524570  39.7175900  12.7484530  70.4345340  38.9628220  12.6605010
  70.0286340  40.2483340  11.9716010  60.9696640  34.8772650  11.0601480
  60.8753510  34.2593400  10.3352350  60.3894030  35.6038940  10.8331390
  63.7358080  33.4345890   8.0928870  63.2875380  33.4570150   7.2474420
  63.1023280  33.0364910   8.6899170  64.1417630  42.3300220   8.7141310
  64.5605740  43.1732950   8.5417550  63.2226260  42.4672260   8.4848090
  66.4781530  40.0616400  10.0979150  66.5977740  39.4657540  10.8373990
  67.3375530  40.0986090   9.6780450  68.8169430  40.6153590   8.6741660
  68.2904650  41.1396210   8.0706800  69.1600770  41.2480980   9.3051390
  61.9925050  48.6353230   9.8299040  61.4546140  49.3599290   9.5107740
  62.2459010  48.1583570   9.0396380  63.2450300  36.6037750  11.3554970
  63.8349990  36.2953600  12.0432790  62.4270540  36.1317500  11.5114870
  68.0643730  36.2203560  11.5887990  67.3759250  35.5585100  11.5237980
  68.7849750  35.7741830  12.0336450  64.8487260  49.8704440  10.0885690
  64.7745960  50.7739580  10.3958060  63.9466100  49.5516340  10.0607760
  56.2514550  47.1979030   3.3919310  56.5817560  46.3300090   3.1597950
  56.6805550  47.4037550   4.2224270  56.7404760  48.0649620   6.1300940
  56.3035750  48.2450420   6.9625090  57.3082440  48.8224240   5.9882660
  56.5729190  40.5769850   2.4889820  55.9178030  40.3081490   1.8449520
  57.4107140  40.4674330   2.0391800  71.0618580  44.2918600   8.5154410
  70.2478420  44.7215760   8.7780200  71.4692780  44.9037010   7.9023460
  57.6105120  40.9622420   7.0293160  57.9778160  40.8749820   7.9089180
  57.0415940  40.1988970   6.9300020  57.1621120  37.8731510  10.9351580
  56.2677170  37.8398270  11.2745290  57.7018670  38.0718300  11.7002830
  57.6660830  32.1479840   5.2834800  58.3137020  31.5977220   4.8429960
  58.0862670  32.4022990   6.1050610  57.4192830  32.3035510   8.0260120
  57.0707650  32.7599330   8.7918300  57.0880530  31.4092640   8.1082550
  59.0257200  45.4755110  12.1913310  58.9826830  45.1048020  13.0727770
  59.1568210  46.4132680  12.3315130  62.7263230  47.0314700   7.7923030
  62.4854590  47.2989260   6.9053550  63.6665870  47.2020430   7.8473890
  64.9317650  33.4947390  11.5479540  64.8706540  34.0869220  12.2974950
  65.8718030  33.3873350  11.4029800  67.5692210  33.1517450  11.1871830
  68.1832620  33.4696740  10.5252910  68.1141770  32.6666040  11.8067690
  58.0913470  31.8311710  11.3010890  58.6396460  31.6499760  10.5377000
  58.1568780  31.0405820  11.8367200  58.8645230  48.4217360   9.3111090
  58.2705550  48.2902060  10.0501130  58.8569070  47.5855500   8.8453190
  68.3100250  31.7149590   7.5141120  67.4360090  32.0484700   7.3114050
  68.2011000  31.2422770   8.3392990  69.2172230  33.9220460   8.8982840
  68.8885590  33.1072220   8.5184570  70.1654530  33.8790270   8.7748530
  71.6706840  49.6932500   5.8720410  71.2109810  50.4448310   5.4978430
  71.0419300  48.9738970   5.8135210  58.4957460  45.7875740   8.2619130
  57.7691520  45.1681030   8.1945080  58.5566610  46.1816350   7.3917210
  62.1002560  48.0020740   5.0468540  62.6167580  47.3908100   4.5216800
  62.7499940  48.5049520   5.5379550  64.8398060  48.8929230   5.8737520
  65.1275870  48.6383530   4.9970530  65.3521280  48.3406590   6.4643090
  66.0575070  32.6319430   6.4534030  65.2746860  33.1064930   6.7330790
  65.7638000  31.7274260   6.3447210  70.6096140  33.3342530   4.4983120
  71.0504230  33.2787630   3.6504720  70.3403730  34.2500540   4.5693300
  68.4454270  31.7148630   3.2033130  69.0483640  32.2868840   3.6781650
  67.7047260  32.2788070   2.9807030  64.9070420  49.8145330  13.2405720
  65.8337730  49.5789600  13.2841680  64.8920850  50.6417330  12.7591750
  62.0934030  32.4790080  13.0047600  61.8118300  32.9823680  12.2408420
  62.4753730  31.6811830  12.6389730  68.6949490  31.8943660  13.5828070
  68.5814940  32.2138270  14.4779590  69.5119230  32.2956170  13.2865350
  67.6007640  21.1392640  59.0436770  67.5201690  20.2247250  58.7728480
  67.1872060  21.6359710  58.3376480  65.7325680  22.9171660  60.9246040
  64.9567780  22.4372100  61.2144610  66.3838610  22.2377310  60.7502200
  59.7491510  23.2291470  61.8021800  58.9176390  22.9740180  62.2018310
  60.3572490  23.3002240  62.5379720  69.7533110  27.3231850  59.7045170
  69.2914640  26.5519090  60.0332340  70.5658660  27.3497920  60.2097620
  59.7292770  27.2631560  61.9979820  60.0320810  26.3729300  61.8190040
  60.4736360  27.8201780  61.7702070  58.1583460  18.1893360  55.5864190
  57.2700160  18.5309330  55.4844070  58.4424650  17.9893680  54.6945020
  56.1216470  20.7899010  61.4703890  56.6932580  20.0221210  61.4707530
  56.1218010  21.0887770  60.5610500  65.9796420  29.6089860  59.3249160
  65.3607860  30.0647360  58.7543600  66.8348200  29.7641320  58.9238860
  65.1734670  25.5928850  60.9316200  65.1042950  24.6518790  60.7705330
  65.9354530  25.6830260  61.5038770  66.2039840  18.3999230  61.1585130
  66.5804660  17.5271110  61.0458800  66.1059350  18.7357930  60.2675570
  60.3344850  16.7724860  56.6202570  60.4411600  17.6728590  56.9271330
  59.4237210  16.7242830  56.3297220  69.9863960  15.8949670  58.0913470
  70.8073580  15.4046240  58.1338950  70.0198040  16.4847330  58.8445310
  57.9828010  18.6943870  61.8655160  58.6638120  18.9582240  62.4842560
  57.6676060  17.8544740  62.1993170  62.1752580  19.7411230  60.9527750
  62.6830800  20.2392200  61.5932770  62.7065820  18.9646430  60.7767110
  66.8459770  24.4929100  56.7181070  66.2277040  24.9578550  56.1543790
  67.3583020  25.1856580  57.1350580  70.2225440  17.8350050  60.8641010
  69.5181010  18.1234940  61.4444120  70.5837600  18.6450160  60.5040570
  56.2142970  25.1785630  54.0920700  55.8370950  25.6672730  53.3605600
  56.4716040  25.8510910  54.7227230  63.8231900  13.5802020  59.5506210
  64.1306880  13.0248910  58.8341710  62.8932600  13.7146480  59.3679200
  69.3746960  29.2969310  61.8413670  69.3874120  28.8931600  60.9735930
  68.8222180  30.0716600  61.7375100  70.6692380  26.0185530  56.9303840
  70.5588710  25.0759860  57.0553260  70.6660630  26.3801170  57.8166600
  66.2112660  21.6450850  56.2866330  65.2841940  21.5788230  56.5154800
  66.3637480  22.5830980  56.1721570  66.1981740  17.9167850  53.2833490
  65.2585410  18.0781810  53.3685950  66.5165000  18.6353530  52.7369480
  70.2409950  23.2071150  56.7901580  69.6222370  22.8690700  56.1427880
  70.2234400  22.5630910  57.4980770  61.8169300  22.1715590  59.0686060
  61.4126300  21.4592840  58.5731960  61.9032420  21.8268830  59.9574100
  62.2851000  25.8583150  61.2325270  61.9879290  25.2528620  60.5533050
  63.2350820  25.8960460  61.1214630  68.4174650  22.4457960  53.7974330
  68.8567930  21.6080390  53.6512150  69.1303070  23.0787360  53.8838470
  66.5270030  27.3854030  57.7655570  66.9665940  28.1278360  57.3510960
  66.4656920  27.6280600  58.6894530  58.5173930  21.0660570  56.5692710
  58.3971530  21.7922660  55.9573980  58.2074820  20.2963480  56.0920620
  56.1559300  24.2375710  62.3761350  56.2339720  24.3724480  61.4317070
  56.7700980  23.5291600  62.5689470  57.4006930  25.9375900  58.7867530
  56.9935010  26.0790490  57.9321130  58.2919940  25.6536060  58.5838740
  69.1940210  30.3723150  55.1218580  69.0341350  30.0826090  56.0200410
  69.0286920  29.5963280  54.5863810  61.6728590  30.1521680  56.8990200
  61.4971070  29.2357220  56.6858000  60.8184330  30.5108970  57.1388000
  68.8966340  27.8810710  53.6816580  68.2031500  27.8788000  53.0218860
  69.6389200  27.4570030  53.2510750  68.4616270  29.5073420  57.7565070
  68.9173220  28.7262800  58.0703690  68.8008790  30.2180240  58.3006250
  60.9837590  14.4095640  59.9516380  60.5405740  15.1905180  59.6200900
  61.5422580  14.7325530  60.6587320  64.0996410  14.0306340  54.8322210
  63.4750590  14.0266210  55.5575520  64.0126530  13.1637300  54.4358180
  63.0213490  14.9542970  61.8105980  63.3185820  15.8605800  61.7298000
  63.5699050  14.4661750  61.1965550  60.7751810  19.5329210  57.6797630
  60.5492730  19.3166380  58.5844250  59.9944340  19.9657670  57.3343600
  68.0049570  19.5392580  56.2788280  67.4058460  20.2628380  56.0951900
  68.5529180  19.4769360  55.4964730  66.6114440  18.1756120  58.3091560
  67.0044010  18.4928320  57.4960250  66.9731290  17.2968000  58.4236080
  55.6478610  14.7656920  60.5321760  55.3591660  15.3359780  61.2446740
  56.3924370  14.2861370  60.8952990  55.8348840  18.7077040  51.7424480
  55.7523510  19.6507800  51.8839470  55.4831900  18.5651950  50.8636830
  67.1969580  20.7661870  62.4042340  66.4650700  21.2748680  62.7532440
  66.7993920  19.9491850  62.1031120  63.6346970  17.4416070  60.8094830
  63.6383030  17.0006020  59.9599370  64.5298090  17.7633400  60.9166650
  59.4849350  17.3242560  59.7689040  59.1449400  17.8017790  60.5256090
  58.7226670  16.8707680  59.4090140  63.6967120  18.4428150  53.8001590
  63.8179940  18.4014630  54.7487410  63.3115630  19.3052300  53.6448320
  67.6595490  16.2195550  61.8165280  67.6768230  16.6704200  62.6607130
  67.4111070  15.3201190  62.0298720  62.7088620  20.7529290  53.1984890
  62.1405520  20.3047540  52.5720800  63.4177620  21.1122070  52.6650040
  56.7995430  16.2461540  58.6853710  56.5142350  15.8817210  59.5232330
  56.7374290  15.5142000  58.0716850  60.2536100  24.7487480  55.4711300
  59.4798360  24.2085100  55.3110020  60.9830730  24.2294090  55.1329060
  66.4734020  15.1390800  55.4067080  65.6598630  14.6403970  55.3312390
  66.2795970  15.9789050  54.9903430  69.1882410  19.5110450  53.7029240
  70.0762030  19.8227680  53.5280580  69.1587500  18.6382700  53.3109820
  60.2973500  24.4167860  59.1090110  60.8152170  23.6136120  59.0547000
  59.8457520  24.3547000  59.9506940  65.1843000  25.6834140  54.3817410
  65.5258700  26.4276370  53.8860730  64.3555710  25.9965260  54.7442240
  68.0670410  25.0049980  59.7462920  68.4194230  24.4078110  59.0864290
  67.1832740  24.6794210  59.9171170  64.1533690  25.7647670  57.1533330
  64.8404820  26.3116880  57.5340920  63.3666110  26.3088400  57.1882940
  56.2926090  21.3820490  52.6450410  57.1620940  21.6645290  52.9286330
  55.8016410  22.1956360  52.5299220  63.4560900  22.7693700  56.7658690
  63.9123680  23.5798950  56.9918880  63.1049110  22.4516840  57.5977180
  59.3572680  13.1131350  57.2381210  59.2287310  13.1049250  58.1866130
  58.5334700  13.4514440  56.8872220  67.0325590  26.2832390  62.7128440
  67.6747820  25.5825550  62.8260610  67.5574940  27.0630830  62.5325330
  70.8781310  26.5681010  52.4367580  70.6518890  25.8511450  53.0292220
  70.4877510  26.3193450  51.5989330  56.6597340  30.5947870  53.2112040
  57.0194980  31.1937210  52.5569310  56.5189680  31.1407760  53.9847070
  70.4597560  24.4852950  54.0981740  70.1719260  24.9465640  54.8859620
  71.2549730  24.0250720  54.3665960  62.6765960  27.9779070  54.0285710
  62.6676060  28.7108760  53.4130220  61.7564320  27.7310650  54.1212670
  58.2772600  23.1993960  54.7732470  57.6700550  23.9392860  54.7827770
  58.7521950  23.2893320  53.9470670  71.2167420  16.3201720  55.2576920
  70.5880580  16.4247390  54.5435150  70.7219340  16.5398500  56.0470800
  65.6625560  28.0407310  52.6910900  65.7637540  27.8371300  51.7612880
  64.7627300  27.7865590  52.8958680  63.1851450  18.5987670  56.6734800
  62.4767600  19.0674010  57.1148410  63.4695930  17.9409680  57.3079990
  67.2166880  15.3238330  58.1130590  67.0934660  15.3424460  57.1640100
  68.1651440  15.3717270  58.2328990  64.3043670  30.5593630  57.3858570
  64.5585170  30.5215020  56.4637940  63.3556150  30.4326960  57.3786820
  61.3886470  16.9072750  54.0485510  62.2377000  17.3442900  53.9825700
  61.0217740  17.2193010  54.8757570  70.3096250  21.4785510  58.9617080
  69.3686390  21.4935740  59.1364770  70.6240320  20.6921470  59.4077380
  60.2877890  23.1605110  52.5221040  61.0541160  23.0486470  53.0846470
  60.3652580  22.4643080  51.8697810  58.9824650  20.5930180  53.2053930
  59.0628240  19.6457690  53.3171330  59.8744400  20.9237060  53.3114590
  59.7839360  30.7425570  60.3088470  60.5201840  30.1941030  60.5797040
  60.1680280  31.6081580  60.1694460  56.6684840  26.8099140  56.1829980
  55.7424620  27.0520280  56.1735390  57.1341270  27.6373400  56.0614730
  62.8941670  29.9155880  52.1314040  63.6870280  30.2044710  51.6795830
  62.3746020  29.4848050  51.4526520  63.4119070  25.1359290  51.9956390
  63.3069710  24.5211640  52.7217770  63.2443290  24.6125180  51.2119400
  66.6521800  24.1979320  52.5998380  66.1031900  24.6448620  53.2441120
  67.2741060  23.6928570  53.1236050  62.3196920  23.1570240  54.4963680
  62.7413340  22.9910110  55.3395070  62.4447760  22.3470470  54.0018820
  64.8324560  22.1807850  51.7440780  65.3530220  21.4656870  51.3781930
  65.4792960  22.8193720  52.0441290  61.2155820  19.2303470  51.4421840
  61.0144880  18.3670830  51.8035180  61.0447870  19.1436830  50.5043440
  68.6944130  14.0411700  53.9708720  68.9746420  13.1979600  54.3268140
  67.9209860  14.2734810  54.4847470  60.0138620  16.3304090  51.4299720
  60.3164520  16.3371520  50.5218870  60.7533210  15.9801950  51.9267380
  63.2323550  15.2738710  52.4155920  62.8845550  14.5962700  51.8358370
  63.4336320  14.8128220  53.2299310  65.3972590  30.2619460  54.0342520
  66.2923380  30.6004430  54.0561280  65.4290220  29.5398870  53.4066800
  59.0368750  25.6346510  52.2629520  59.4743620  26.1776180  52.9187100
  59.5216480  24.8093460  52.2725860  56.2514550  28.4235540  59.7149780
  56.5817560  27.5556600  59.4828420  56.6805550  28.6294060  60.5454740
  60.8476470  26.7544550  57.3751750  60.5472010  26.6309520  58.2755660
  60.7413960  25.8953140  56.9667480  56.5729190  21.8026360  58.8120290
  55.9178030  21.5338000  58.1679990  57.4107140  21.6930840  58.3622270
  69.5219630  16.5967650  53.0338780  69.9404510  16.4098630  52.1935440
  69.2155690  15.7446700  53.3441710  55.7867270  19.0125290  54.7545620
  54.8831350  19.2755490  54.5797280  56.2707890  19.2836460  53.9745580
  58.3294480  18.0690830  52.6640000  59.0386180  17.6474050  52.1787280
  57.6134420  18.1366060  52.0323350  57.9768640  14.1230160  51.7042650
  58.6996770  14.6639100  52.0223870  58.2493160  13.8493580  50.8284190
  57.6660830  13.3736350  61.6065270  58.3137020  12.8233730  61.1660430
  58.0862670  13.6279500  62.4281080  71.1194630  30.2693710  58.3653150
  71.7153700  29.9478280  57.6887570  71.3772780  29.7965530  59.1566420
  71.6706840  30.9189010  62.1950880  71.2109810  31.6704820  61.8208900
  71.0419300  30.1995480  62.1365680  62.1002560  29.2277250  61.3699010
  62.6167580  28.6164610  60.8447270  62.7499940  29.7306030  61.8610020
  64.8398060  30.1185740  62.1967990  65.1275870  29.8640040  61.3201000
  65.3521280  29.5663100  62.7873560  66.0575070  13.8575940  62.7764500
  65.2746860  14.3321440  63.0561260  65.7638000  12.9530770  62.6677680
  70.6096140  14.5599040  60.8213590  71.0504230  14.5044140  59.9735190
  70.3403730  15.4757050  60.8923770  56.7787460  30.3306640  57.7946360
  56.6109500  29.6977320  58.4928250  55.9121970  30.5366040  57.4440550
  57.4015480  14.1623420  55.2978220  58.1594840  14.2752300  54.7242250
  56.9392650  14.9992620  55.2521650  63.9429290  16.2762690  58.2880530
  63.1303800  15.9019580  57.9476410  64.4470930  15.5207770  58.5901720
  68.4454270  12.9405140  59.5263600  69.0483640  13.5125350  60.0012120
  67.7047260  13.5044580  59.3037500  58.3850160  29.0239870  55.2396500
  57.8597780  29.4047900  54.5358460  58.3094740  29.6490640  55.9606210
  59.7740630  14.6887470  53.8380190  60.3033390  13.9017270  53.7088140
  60.4068950  15.3678660  54.0715720  61.9678470  14.4262610  56.8925580
  61.3381210  13.7249920  57.0595710  61.4283610  15.1866740  56.6758740
  60.9843130  30.9722250  54.1145750  61.7161950  30.6881530  53.5669640
  61.2436800  30.7335530  55.0045130  60.1457920  27.0886980  54.1192080
  59.5166800  27.5572080  54.6677910  60.2605750  26.2436200  54.5538270
  67.6007640  21.1392640  40.2693280  67.5201690  20.2247250  39.9984990
  67.1872060  21.6359710  39.5632990  65.7325680  22.9171660  42.1502550
  64.9567780  22.4372100  42.4401120  66.3838610  22.2377310  41.9758710
  59.7491510  23.2291470  43.0278310  58.9176390  22.9740180  43.4274820
  60.3572490  23.3002240  43.7636230  69.7533110  27.3231850  40.9301680
  69.2914640  26.5519090  41.2588850  70.5658660  27.3497920  41.4354130
  59.7292770  27.2631560  43.2236330  60.0320810  26.3729300  43.0446550
  60.4736360  27.8201780  42.9958580  58.1583460  18.1893360  36.8120700
  57.2700160  18.5309330  36.7100580  58.4424650  17.9893680  35.9201530
  56.1216470  20.7899010  42.6960400  56.6932580  20.0221210  42.6964040
  56.1218010  21.0887770  41.7867010  65.9796420  29.6089860  40.5505670
  65.3607860  30.0647360  39.9800110  66.8348200  29.7641320  40.1495370
  65.1734670  25.5928850  42.1572710  65.1042950  24.6518790  41.9961840
  65.9354530  25.6830260  42.7295280  57.3641340  16.1983370  44.4829330
  57.1844180  15.3009120  44.7632090  56.9621420  16.7455240  45.1576280
  66.2039840  18.3999230  42.3841640  66.5804660  17.5271110  42.2715310
  66.1059350  18.7357930  41.4932080  60.3344850  16.7724860  37.8459080
  60.4411600  17.6728590  38.1527840  59.4237210  16.7242830  37.5553730
  69.9863960  15.8949670  39.3169980  70.8073580  15.4046240  39.3595460
  70.0198040  16.4847330  40.0701820  57.9828010  18.6943870  43.0911670
  58.6638120  18.9582240  43.7099070  57.6676060  17.8544740  43.4249680
  62.1752580  19.7411230  42.1784260  62.6830800  20.2392200  42.8189280
  62.7065820  18.9646430  42.0023620  60.4588680  14.3809790  46.4447680
  60.4607120  14.8982180  45.6393580  59.6292990  13.9039970  46.4217610
  66.8459770  24.4929100  37.9437580  66.2277040  24.9578550  37.3800300
  67.3583020  25.1856580  38.3607090  61.7091530  24.0204970  44.6221180
  61.3760910  24.6473890  45.2642250  61.8858210  24.5466850  43.8422850
  70.2225440  17.8350050  42.0897520  69.5181010  18.1234940  42.6700630
  70.5837600  18.6450160  41.7297080  60.1404010  16.0919750  44.4518130
  60.4820820  16.9361800  44.1572000  59.2019820  16.2403490  44.5683470
  60.9210630  25.9885770  46.4370360  61.5384630  26.6636850  46.1554810
  60.0603750  26.3973750  46.3457860  63.8231900  13.5802020  40.7762720
  64.1306880  13.0248910  40.0598220  62.8932600  13.7146480  40.5935710
  69.3746960  29.2969310  43.0670180  69.3874120  28.8931600  42.1992440
  68.8222180  30.0716600  42.9631610  70.6692380  26.0185530  38.1560350
  70.5588710  25.0759860  38.2809770  70.6660630  26.3801170  39.0423110
  68.7732400  24.1999150  44.3952790  69.1901190  23.9859260  43.5606250
  69.4972220  24.4571940  44.9661410  66.2112660  21.6450850  37.5122840
  65.2841940  21.5788230  37.7411310  66.3637480  22.5830980  37.3978080
  66.1981740  17.9167850  34.5090000  65.2585410  18.0781810  34.5942460
  66.5165000  18.6353530  33.9625990  70.2409950  23.2071150  38.0158090
  69.6222370  22.8690700  37.3684390  70.2234400  22.5630910  38.7237280
  69.6836510  19.3855690  45.4323900  69.2707690  20.2109400  45.6863890
  68.9512460  18.8000730  45.2400260  61.8169300  22.1715590  40.2942570
  61.4126300  21.4592840  39.7988470  61.9032420  21.8268830  41.1830610
  62.2851000  25.8583150  42.4581780  61.9879290  25.2528620  41.7789560
  63.2350820  25.8960460  42.3471140  60.5297920  18.9458800  44.0741610
  61.0812510  19.0554140  43.2994860  61.0441430  19.3196400  44.7896840
  70.3736610  29.4315020  46.1204880  69.8967170  30.2387210  45.9277490
  69.6898400  28.7793350  46.2731090  61.3769430  25.5964840  49.1089580
  60.4797960  25.8204810  49.3562980  61.4022300  25.7199780  48.1600980
  68.4174650  22.4457960  35.0230840  68.8567930  21.6080390  34.8768660
  69.1303070  23.0787360  35.1094980  60.2040650  22.4678160  47.6846950
  60.0648420  23.3400960  48.0534350  59.3222010  22.1250970  47.5394890
  66.5270030  27.3854030  38.9912080  66.9665940  28.1278360  38.5767470
  66.4656920  27.6280600  39.9151040  62.0021000  28.4099860  49.8932100
  61.9736430  28.8142810  49.0260530  61.8385970  27.4810220  49.7303700
  58.5173930  21.0660570  37.7949220  58.3971530  21.7922660  37.1830490
  58.2074820  20.2963480  37.3177130  56.1559300  24.2375710  43.6017860
  56.2339720  24.3724480  42.6573580  56.7700980  23.5291600  43.7945980
  57.4006930  25.9375900  40.0124040  56.9935010  26.0790490  39.1577640
  58.2919940  25.6536060  39.8095250  67.2185810  30.0867810  46.9191090
  67.7330480  29.9975820  47.7213520  66.3754890  30.4327510  47.2119000
  69.1940210  30.3723150  36.3475090  69.0341350  30.0826090  37.2456920
  69.0286920  29.5963280  35.8120320  61.6728590  30.1521680  38.1246710
  61.4971070  29.2357220  37.9114510  60.8184330  30.5108970  38.3644510
  68.8966340  27.8810710  34.9073090  68.2031500  27.8788000  34.2475370
  69.6389200  27.4570030  34.4767260  68.4616270  29.5073420  38.9821580
  68.9173220  28.7262800  39.2960200  68.8008790  30.2180240  39.5262760
  56.2118820  25.2789880  46.1412320  56.3749860  24.8095240  45.3231690
  56.6771270  24.7713440  46.8061160  60.9837590  14.4095640  41.1772890
  60.5405740  15.1905180  40.8457410  61.5422580  14.7325530  41.8843830
  65.2707400  17.2764160  46.7808210  64.8086770  17.4847180  47.5928150
  64.8685510  16.4623510  46.4778880  70.2711910  18.4973110  47.9104870
  69.4205500  18.1978860  48.2313940  70.1113700  18.7415120  46.9988690
  67.3661620  19.9974860  50.0103660  67.6915030  19.1638610  49.6705890
  68.1541950  20.5203380  50.1581990  64.0996410  14.0306340  36.0578720
  63.4750590  14.0266210  36.7832030  64.0126530  13.1637300  35.6614690
  63.0213490  14.9542970  43.0362490  63.3185820  15.8605800  42.9554510
  63.5699050  14.4661750  42.4222060  60.7751810  19.5329210  38.9054140
  60.5492730  19.3166380  39.8100760  59.9944340  19.9657670  38.5600110
  68.0049570  19.5392580  37.5044790  67.4058460  20.2628380  37.3208410
  68.5529180  19.4769360  36.7221240  63.2151020  20.4314790  49.5714410
  63.1194620  19.4909520  49.4214810  64.0583000  20.6529860  49.1762480
  66.6114440  18.1756120  39.5348070  67.0044010  18.4928320  38.7216760
  66.9731290  17.2968000  39.6492590  58.3461560  16.8428460  47.7248190
  57.9524950  17.6903670  47.9320970  57.6579960  16.2054830  47.9156830
  64.9206610  16.9263430  50.7944930  64.2304930  16.7335630  51.4291020
  65.6638910  17.2098070  51.3269230  55.6478610  14.7656920  41.7578270
  55.3591660  15.3359780  42.4703250  56.3924370  14.2861370  42.1209500
  67.1969580  20.7661870  43.6298850  66.4650700  21.2748680  43.9788950
  66.7993920  19.9491850  43.3287630  63.6346970  17.4416070  42.0351340
  63.6383030  17.0006020  41.1855880  64.5298090  17.7633400  42.1423160
  59.4849350  17.3242560  40.9945550  59.1449400  17.8017790  41.7512600
  58.7226670  16.8707680  40.6346650  63.6967120  18.4428150  35.0258100
  63.8179940  18.4014630  35.9743920  63.3115630  19.3052300  34.8704830
  67.6595490  16.2195550  43.0421790  67.6768230  16.6704200  43.8863640
  67.4111070  15.3201190  43.2555230  62.7088620  20.7529290  34.4241400
  62.1405520  20.3047540  33.7977310  63.4177620  21.1122070  33.8906550
  71.0866240  13.6327730  48.8808170  71.4112010  12.9017390  49.4066150
  71.1222750  13.3141370  47.9789160  57.7857800  24.6541310  48.3008130
  57.4012590  24.0134980  48.8991090  58.0969990  25.3577430  48.8702860
  63.9354940  21.5017850  43.7816750  64.3025070  21.0276420  44.5278090
  63.7460000  22.3759420  44.1225090  56.7995430  16.2461540  39.9110220
  56.5142350  15.8817210  40.7488840  56.7374290  15.5142000  39.2973360
  61.7254310  20.5426490  46.1000960  61.4211380  21.4218470  46.3251320
  62.6800770  20.6026280  46.1358400  60.2536100  24.7487480  36.6967810
  59.4798360  24.2085100  36.5366530  60.9830730  24.2294090  36.3585570
  66.4734020  15.1390800  36.6323590  65.6598630  14.6403970  36.5568900
  66.2795970  15.9789050  36.2159940  66.3942880  23.8161900  48.3763200
  66.3280190  22.8957570  48.1220790  65.7648020  23.9137340  49.0907840
  69.1882410  19.5110450  34.9285750  70.0762030  19.8227680  34.7537090
  69.1587500  18.6382700  34.5366330  60.2973500  24.4167860  40.3346620
  60.8152170  23.6136120  40.2803510  59.8457520  24.3547000  41.1763450
  65.1843000  25.6834140  35.6073920  65.5258700  26.4276370  35.1117240
  64.3555710  25.9965260  35.9698750  57.7818040  21.3829230  47.2472320
  57.4232980  22.0483080  47.8345660  57.4872600  20.5512780  47.6184940
  60.9831160  21.8413470  50.1311870  60.6831300  21.9870650  49.2339690
  61.7542400  21.2818760  50.0385260  66.3259610  26.6382470  48.1267000
  66.3404150  25.7063430  47.9085910  65.6184710  26.7242230  48.7656770
  68.0670410  25.0049980  40.9719430  68.4194230  24.4078110  40.3120800
  67.1832740  24.6794210  41.1427680  64.1533690  25.7647670  38.3789840
  64.8404820  26.3116880  38.7597430  63.3666110  26.3088400  38.4139450
  63.4560900  22.7693700  37.9915200  63.9123680  23.5798950  38.2175390
  63.1049110  22.4516840  38.8233690  65.7593510  28.2800040  45.2207500
  66.4035730  28.4859420  45.8980920  66.1222950  27.5188440  44.7678350
  59.3572680  13.1131350  38.4637720  59.2287310  13.1049250  39.4122640
  58.5334700  13.4514440  38.1128730  67.0325590  26.2832390  43.9384950
  67.6747820  25.5825550  44.0517120  67.5574940  27.0630830  43.7581840
  70.8781310  26.5681010  33.6624090  70.6518890  25.8511450  34.2548730
  70.4877510  26.3193450  32.8245840  68.8063210  27.0827290  47.1421010
  69.1419450  27.6693980  47.8198930  67.8863550  26.9520000  47.3718800
  56.3566610  14.8722470  47.9244420  55.6425130  15.0719390  48.5297030
  56.7761650  14.0962040  48.2959220  70.4597560  24.4852950  35.3238250
  70.1719260  24.9465640  36.1116130  71.2549730  24.0250720  35.5922470
  56.6439200  28.8602730  48.9110950  56.7530320  27.9197470  48.7706340
  55.9919760  29.1257480  48.2624680  64.6351790  27.1318620  50.3109070
  64.3148660  26.4127860  50.8554760  63.9610150  27.8073690  50.3845130
  62.6765960  27.9779070  35.2542220  62.6676060  28.7108760  34.6386730
  61.7564320  27.7310650  35.3469180  67.8505390  17.3644780  45.6745870
  68.2186210  16.5439990  46.0025440  66.9903590  17.4246670  46.0901520
  71.2167420  16.3201720  36.4833430  70.5880580  16.4247390  35.7691660
  70.7219340  16.5398500  37.2727310  65.6625560  28.0407310  33.9167410
  65.7637540  27.8371300  32.9869390  64.7627300  27.7865590  34.1215190
  63.1851450  18.5987670  37.8991310  62.4767600  19.0674010  38.3404920
  63.4695930  17.9409680  38.5336500  64.8107380  20.0184370  45.8983840
  65.3092630  20.4930190  46.5635690  64.9530330  19.0947890  46.1053870
  67.2166880  15.3238330  39.3387100  67.0934660  15.3424460  38.3896610
  68.1651440  15.3717270  39.4585500  64.3043670  30.5593630  38.6115080
  64.5585170  30.5215020  37.6894450  63.3556150  30.4326960  38.6043330
  61.3886470  16.9072750  35.2742020  62.2377000  17.3442900  35.2082210
  61.0217740  17.2193010  36.1014080  70.3096250  21.4785510  40.1873590
  69.3686390  21.4935740  40.3621280  70.6240320  20.6921470  40.6333890
  60.2877890  23.1605110  33.7477550  61.0541160  23.0486470  34.3102980
  60.3652580  22.4643080  33.0954320  58.9824650  20.5930180  34.4310440
  59.0628240  19.6457690  34.5427840  59.8744400  20.9237060  34.5371100
  59.7839360  30.7425570  41.5344980  60.5201840  30.1941030  41.8053550
  60.1680280  31.6081580  41.3950970  58.7897640  29.9271640  50.7230560
  59.5910370  30.2483690  51.1365960  58.2749460  29.5667220  51.4450470
  62.8941670  29.9155880  33.3570550  63.6870280  30.2044710  32.9052340
  62.3746020  29.4848050  32.6783030  67.6262270  26.0351510  50.6705970
  67.0200430  26.0583110  49.9301720  67.3216380  25.3034550  51.2073220
  69.0562640  29.7631800  49.2815380  70.0084390  29.6789820  49.2315620
  68.9090860  30.4273510  49.9549170  56.5095450  22.4145100  49.6666610
  57.0134470  21.8352380  50.2382840  55.7702870  22.6985330  50.2042980
  63.4119070  25.1359290  33.2212900  63.3069710  24.5211640  33.9474280
  63.2443290  24.6125180  32.4375910  63.5633390  23.8216090  49.2002130
  62.7979060  24.3901090  49.1156800  63.7449350  23.5292300  48.3070360
  66.6521800  24.1979320  33.8254890  66.1031900  24.6448620  34.4697630
  67.2741060  23.6928570  34.3492560  70.7056740  25.5521420  49.7577150
  71.4466210  25.8897180  49.2544610  69.9429420  25.7213480  49.2046920
  58.5418530  20.5574690  50.5616680  58.5823870  20.2588560  51.4701910
  59.3964030  20.9582300  50.4024200  62.3196920  23.1570240  35.7220190
  62.7413340  22.9910110  36.5651580  62.4447760  22.3470470  35.2275330
  60.4824340  19.1366790  48.5291170  59.9520800  18.6457740  47.9014510
  61.1512410  19.5650990  47.9949100  64.8324560  22.1807850  32.9697290
  65.3530220  21.4656870  32.6038440  65.4792960  22.8193720  33.2697800
  69.3802400  23.6036250  48.2932360  69.7943420  23.7581330  49.1422780
  68.4453400  23.7291470  48.4558140  69.8524570  20.9432410  50.2971510
  70.4345340  20.1884730  50.2091990  70.0286340  21.4739850  49.5202990
  60.9696640  16.1029160  48.6088460  60.8753510  15.4849910  47.8839330
  60.3894030  16.8295450  48.3818370  63.7358080  14.6602400  45.6415850
  63.2875380  14.6826660  44.7961400  63.1023280  14.2621420  46.2386150
  64.1417630  23.5556730  46.2628290  64.5605740  24.3989460  46.0904530
  63.2226260  23.6928770  46.0335070  66.4781530  21.2872910  47.6466130
  66.5977740  20.6914050  48.3860970  67.3375530  21.3242600  47.2267430
  68.8169430  21.8410100  46.2228640  68.2904650  22.3652720  45.6193780
  69.1600770  22.4737490  46.8538370  61.2155820  19.2303470  32.6678350
  61.0144880  18.3670830  33.0291690  61.0447870  19.1436830  31.7299950
  61.9925050  29.8609740  47.3786020  61.4546140  30.5855800  47.0594720
  62.2459010  29.3840080  46.5883360  63.2450300  17.8294260  48.9041950
  63.8349990  17.5210110  49.5919770  62.4270540  17.3574010  49.0601850
  68.0643730  17.4460070  49.1374970  67.3759250  16.7841610  49.0724960
  68.7849750  16.9998340  49.5823430  68.6944130  14.0411700  35.1965230
  68.9746420  13.1979600  35.5524650  67.9209860  14.2734810  35.7103980
  60.0138620  16.3304090  32.6556230  60.3164520  16.3371520  31.7475380
  60.7533210  15.9801950  33.1523890  64.8487260  31.0960950  47.6372670
  64.7745960  31.9996090  47.9445040  63.9466100  30.7772850  47.6094740
  63.2323550  15.2738710  33.6412430  62.8845550  14.5962700  33.0614880
  63.4336320  14.8128220  34.4555820  65.3972590  30.2619460  35.2599030
  66.2923380  30.6004430  35.2817790  65.4290220  29.5398870  34.6323310
  59.0368750  25.6346510  33.4886030  59.4743620  26.1776180  34.1443610
  59.5216480  24.8093460  33.4982370  56.2514550  28.4235540  40.9406290
  56.5817560  27.5556600  40.7084930  56.6805550  28.6294060  41.7711250
  60.8476470  26.7544550  38.6008260  60.5472010  26.6309520  39.5012170
  60.7413960  25.8953140  38.1923990  56.7404760  29.2906130  43.6787920
  56.3035750  29.4706930  44.5112070  57.3082440  30.0480750  43.5369640
  56.5729190  21.8026360  40.0376800  55.9178030  21.5338000  39.3936500
  57.4107140  21.6930840  39.5878780  71.0618580  25.5175110  46.0641390
  70.2478420  25.9472270  46.3267180  71.4692780  26.1293520  45.4510440
  69.5219630  16.5967650  34.2595290  69.9404510  16.4098630  33.4191950
  69.2155690  15.7446700  34.5698220  57.6105120  22.1878930  44.5780140
  57.9778160  22.1006330  45.4576160  57.0415940  21.4245480  44.4787000
  57.1621120  19.0988020  48.4838560  56.2677170  19.0654780  48.8232270
  57.7018670  19.2974810  49.2489810  55.7867270  19.0125290  35.9802130
  54.8831350  19.2755490  35.8053790  56.2707890  19.2836460  35.2002090
  58.3294480  18.0690830  33.8896510  59.0386180  17.6474050  33.4043790
  57.6134420  18.1366060  33.2579860  57.9768640  14.1230160  32.9299160
  58.6996770  14.6639100  33.2480380  58.2493160  13.8493580  32.0540700
  57.6660830  13.3736350  42.8321780  58.3137020  12.8233730  42.3916940
  58.0862670  13.6279500  43.6537590  71.1194630  30.2693710  39.5909660
  71.7153700  29.9478280  38.9144080  71.3772780  29.7965530  40.3822930
  57.4192830  13.5292020  45.5747100  57.0707650  13.9855840  46.3405280
  57.0880530  12.6349150  45.6569530  59.0257200  26.7011620  49.7400290
  58.9826830  26.3304530  50.6214750  59.1568210  27.6389190  49.8802110
  62.7263230  28.2571210  45.3410010  62.4854590  28.5245770  44.4540530
  63.6665870  28.4276940  45.3960870  64.9317650  14.7203900  49.0966520
  64.8706540  15.3125730  49.8461930  65.8718030  14.6129860  48.9516780
  67.5692210  14.3773960  48.7358810  68.1832620  14.6953250  48.0739890
  68.1141770  13.8922550  49.3554670  58.0913470  13.0568220  48.8497870
  58.6396460  12.8756270  48.0863980  58.1568780  12.2662330  49.3854180
  58.8645230  29.6473870  46.8598070  58.2705550  29.5158570  47.5988110
  58.8569070  28.8112010  46.3940170  68.3100250  12.9406100  45.0628100
  67.4360090  13.2741210  44.8601030  68.2011000  12.4679280  45.8879970
  69.2172230  15.1476970  46.4469820  68.8885590  14.3328730  46.0671550
  70.1654530  15.1046780  46.3235510  71.6706840  30.9189010  43.4207390
  71.2109810  31.6704820  43.0465410  71.0419300  30.1995480  43.3622190
  58.4957460  27.0132250  45.8106110  57.7691520  26.3937540  45.7432060
  58.5566610  27.4072860  44.9404190  62.1002560  29.2277250  42.5955520
  62.6167580  28.6164610  42.0703780  62.7499940  29.7306030  43.0866530
  64.8398060  30.1185740  43.4224500  65.1275870  29.8640040  42.5457510
  65.3521280  29.5663100  44.0130070  66.0575070  13.8575940  44.0021010
  65.2746860  14.3321440  44.2817770  65.7638000  12.9530770  43.8934190
  70.6096140  14.5599040  42.0470100  71.0504230  14.5044140  41.1991700
  70.3403730  15.4757050  42.1180280  57.4015480  14.1623420  36.5234730
  58.1594840  14.2752300  35.9498760  56.9392650  14.9992620  36.4778160
  63.9429290  16.2762690  39.5137040  63.1303800  15.9019580  39.1732920
  64.4470930  15.5207770  39.8158230  68.4454270  12.9405140  40.7520110
  69.0483640  13.5125350  41.2268630  67.7047260  13.5044580  40.5294010
  58.3850160  29.0239870  36.4653010  57.8597780  29.4047900  35.7614970
  58.3094740  29.6490640  37.1862720  59.7740630  14.6887470  35.0636700
  60.3033390  13.9017270  34.9344650  60.4068950  15.3678660  35.2972230
  61.9678470  14.4262610  38.1182090  61.3381210  13.7249920  38.2852220
  61.4283610  15.1866740  37.9015250  64.9070420  31.0401840  50.7892700
  65.8337730  30.8046110  50.8328660  64.8920850  31.8673840  50.3078730
  62.0934030  13.7046590  50.5534580  61.8118300  14.2080190  49.7895400
  62.4753730  12.9068340  50.1876710  60.9843130  30.9722250  35.3402260
  61.7161950  30.6881530  34.7926150  61.2436800  30.7335530  36.2301640
  60.1457920  27.0886980  35.3448590  59.5166800  27.5572080  35.8934420
  60.2605750  26.2436200  35.7794780  68.6949490  13.1200170  51.1315050
  68.5814940  13.4394780  52.0266570  69.5119230  13.5212680  50.8352330
  67.6007640  21.1392640  21.4949790  67.5201690  20.2247250  21.2241500
  67.1872060  21.6359710  20.7889500  65.7325680  22.9171660  23.3759060
  64.9567780  22.4372100  23.6657630  66.3838610  22.2377310  23.2015220
  59.7491510  23.2291470  24.2534820  58.9176390  22.9740180  24.6531330
  60.3572490  23.3002240  24.9892740  69.7533110  27.3231850  22.1558190
  69.2914640  26.5519090  22.4845360  70.5658660  27.3497920  22.6610640
  59.7292770  27.2631560  24.4492840  60.0320810  26.3729300  24.2703060
  60.4736360  27.8201780  24.2215090  58.1583460  18.1893360  18.0377210
  57.2700160  18.5309330  17.9357090  58.4424650  17.9893680  17.1458040
  56.1216470  20.7899010  23.9216910  56.6932580  20.0221210  23.9220550
  56.1218010  21.0887770  23.0123520  65.9796420  29.6089860  21.7762180
  65.3607860  30.0647360  21.2056620  66.8348200  29.7641320  21.3751880
  65.1734670  25.5928850  23.3829220  65.1042950  24.6518790  23.2218350
  65.9354530  25.6830260  23.9551790  57.3641340  16.1983370  25.7085840
  57.1844180  15.3009120  25.9888600  56.9621420  16.7455240  26.3832790
  66.2039840  18.3999230  23.6098150  66.5804660  17.5271110  23.4971820
  66.1059350  18.7357930  22.7188590  60.3344850  16.7724860  19.0715590
  60.4411600  17.6728590  19.3784350  59.4237210  16.7242830  18.7810240
  69.9863960  15.8949670  20.5426490  70.8073580  15.4046240  20.5851970
  70.0198040  16.4847330  21.2958330  57.9828010  18.6943870  24.3168180
  58.6638120  18.9582240  24.9355580  57.6676060  17.8544740  24.6506190
  62.1752580  19.7411230  23.4040770  62.6830800  20.2392200  24.0445790
  62.7065820  18.9646430  23.2280130  60.4588680  14.3809790  27.6704190
  60.4607120  14.8982180  26.8650090  59.6292990  13.9039970  27.6474120
  66.8459770  24.4929100  19.1694090  66.2277040  24.9578550  18.6056810
  67.3583020  25.1856580  19.5863600  61.7091530  24.0204970  25.8477690
  61.3760910  24.6473890  26.4898760  61.8858210  24.5466850  25.0679360
  70.2225440  17.8350050  23.3154030  69.5181010  18.1234940  23.8957140
  70.5837600  18.6450160  22.9553590  60.1404010  16.0919750  25.6774640
  60.4820820  16.9361800  25.3828510  59.2019820  16.2403490  25.7939980
  60.9210630  25.9885770  27.6626870  61.5384630  26.6636850  27.3811320
  60.0603750  26.3973750  27.5714370  56.2142970  25.1785630  16.5433720
  55.8370950  25.6672730  15.8118620  56.4716040  25.8510910  17.1740250
  63.8231900  13.5802020  22.0019230  64.1306880  13.0248910  21.2854730
  62.8932600  13.7146480  21.8192220  69.3746960  29.2969310  24.2926690
  69.3874120  28.8931600  23.4248950  68.8222180  30.0716600  24.1888120
  70.6692380  26.0185530  19.3816860  70.5588710  25.0759860  19.5066280
  70.6660630  26.3801170  20.2679620  68.7732400  24.1999150  25.6209300
  69.1901190  23.9859260  24.7862760  69.4972220  24.4571940  26.1917920
  66.2112660  21.6450850  18.7379350  65.2841940  21.5788230  18.9667820
  66.3637480  22.5830980  18.6234590  66.1981740  17.9167850  15.7346510
  65.2585410  18.0781810  15.8198970  66.5165000  18.6353530  15.1882500
  70.2409950  23.2071150  19.2414600  69.6222370  22.8690700  18.5940900
  70.2234400  22.5630910  19.9493790  69.6836510  19.3855690  26.6580410
  69.2707690  20.2109400  26.9120400  68.9512460  18.8000730  26.4656770
  61.8169300  22.1715590  21.5199080  61.4126300  21.4592840  21.0244980
  61.9032420  21.8268830  22.4087120  62.2851000  25.8583150  23.6838290
  61.9879290  25.2528620  23.0046070  63.2350820  25.8960460  23.5727650
  60.5297920  18.9458800  25.2998120  61.0812510  19.0554140  24.5251370
  61.0441430  19.3196400  26.0153350  70.3736610  29.4315020  27.3461390
  69.8967170  30.2387210  27.1534000  69.6898400  28.7793350  27.4987600
  61.3769430  25.5964840  30.3346090  60.4797960  25.8204810  30.5819490
  61.4022300  25.7199780  29.3857490  68.4174650  22.4457960  16.2487350
  68.8567930  21.6080390  16.1025170  69.1303070  23.0787360  16.3351490
  60.2040650  22.4678160  28.9103460  60.0648420  23.3400960  29.2790860
  59.3222010  22.1250970  28.7651400  66.5270030  27.3854030  20.2168590
  66.9665940  28.1278360  19.8023980  66.4656920  27.6280600  21.1407550
  62.0021000  28.4099860  31.1188610  61.9736430  28.8142810  30.2517040
  61.8385970  27.4810220  30.9560210  58.5173930  21.0660570  19.0205730
  58.3971530  21.7922660  18.4087000  58.2074820  20.2963480  18.5433640
  56.1559300  24.2375710  24.8274370  56.2339720  24.3724480  23.8830090
  56.7700980  23.5291600  25.0202490  57.4006930  25.9375900  21.2380550
  56.9935010  26.0790490  20.3834150  58.2919940  25.6536060  21.0351760
  67.2185810  30.0867810  28.1447600  67.7330480  29.9975820  28.9470030
  66.3754890  30.4327510  28.4375510  69.1940210  30.3723150  17.5731600
  69.0341350  30.0826090  18.4713430  69.0286920  29.5963280  17.0376830
  61.6728590  30.1521680  19.3503220  61.4971070  29.2357220  19.1371020
  60.8184330  30.5108970  19.5901020  68.8966340  27.8810710  16.1329600
  68.2031500  27.8788000  15.4731880  69.6389200  27.4570030  15.7023770
  68.4616270  29.5073420  20.2078090  68.9173220  28.7262800  20.5216710
  68.8008790  30.2180240  20.7519270  56.2118820  25.2789880  27.3668830
  56.3749860  24.8095240  26.5488200  56.6771270  24.7713440  28.0317670
  60.9837590  14.4095640  22.4029400  60.5405740  15.1905180  22.0713920
  61.5422580  14.7325530  23.1100340  65.2707400  17.2764160  28.0064720
  64.8086770  17.4847180  28.8184660  64.8685510  16.4623510  27.7035390
  70.2711910  18.4973110  29.1361380  69.4205500  18.1978860  29.4570450
  70.1113700  18.7415120  28.2245200  67.3661620  19.9974860  31.2360170
  67.6915030  19.1638610  30.8962400  68.1541950  20.5203380  31.3838500
  64.0996410  14.0306340  17.2835230  63.4750590  14.0266210  18.0088540
  64.0126530  13.1637300  16.8871200  63.0213490  14.9542970  24.2619000
  63.3185820  15.8605800  24.1811020  63.5699050  14.4661750  23.6478570
  60.7751810  19.5329210  20.1310650  60.5492730  19.3166380  21.0357270
  59.9944340  19.9657670  19.7856620  68.0049570  19.5392580  18.7301300
  67.4058460  20.2628380  18.5464920  68.5529180  19.4769360  17.9477750
  63.2151020  20.4314790  30.7970920  63.1194620  19.4909520  30.6471320
  64.0583000  20.6529860  30.4018990  66.6114440  18.1756120  20.7604580
  67.0044010  18.4928320  19.9473270  66.9731290  17.2968000  20.8749100
  58.3461560  16.8428460  28.9504700  57.9524950  17.6903670  29.1577480
  57.6579960  16.2054830  29.1413340  64.9206610  16.9263430  32.0201440
  64.2304930  16.7335630  32.6547530  65.6638910  17.2098070  32.5525740
  55.6478610  14.7656920  22.9834780  55.3591660  15.3359780  23.6959760
  56.3924370  14.2861370  23.3466010  55.8348840  18.7077040  14.1937500
  55.7523510  19.6507800  14.3352490  55.4831900  18.5651950  13.3149850
  67.1969580  20.7661870  24.8555360  66.4650700  21.2748680  25.2045460
  66.7993920  19.9491850  24.5544140  63.6346970  17.4416070  23.2607850
  63.6383030  17.0006020  22.4112390  64.5298090  17.7633400  23.3679670
  59.4849350  17.3242560  22.2202060  59.1449400  17.8017790  22.9769110
  58.7226670  16.8707680  21.8603160  63.6967120  18.4428150  16.2514610
  63.8179940  18.4014630  17.2000430  63.3115630  19.3052300  16.0961340
  67.6595490  16.2195550  24.2678300  67.6768230  16.6704200  25.1120150
  67.4111070  15.3201190  24.4811740  62.7088620  20.7529290  15.6497910
  62.1405520  20.3047540  15.0233820  63.4177620  21.1122070  15.1163060
  71.0866240  13.6327730  30.1064680  71.4112010  12.9017390  30.6322660
  71.1222750  13.3141370  29.2045670  57.7857800  24.6541310  29.5264640
  57.4012590  24.0134980  30.1247600  58.0969990  25.3577430  30.0959370
  63.9354940  21.5017850  25.0073260  64.3025070  21.0276420  25.7534600
  63.7460000  22.3759420  25.3481600  56.7995430  16.2461540  21.1366730
  56.5142350  15.8817210  21.9745350  56.7374290  15.5142000  20.5229870
  61.7254310  20.5426490  27.3257470  61.4211380  21.4218470  27.5507830
  62.6800770  20.6026280  27.3614910  60.2536100  24.7487480  17.9224320
  59.4798360  24.2085100  17.7623040  60.9830730  24.2294090  17.5842080
  66.4734020  15.1390800  17.8580100  65.6598630  14.6403970  17.7825410
  66.2795970  15.9789050  17.4416450  66.3942880  23.8161900  29.6019710
  66.3280190  22.8957570  29.3477300  65.7648020  23.9137340  30.3164350
  69.1882410  19.5110450  16.1542260  70.0762030  19.8227680  15.9793600
  69.1587500  18.6382700  15.7622840  60.2973500  24.4167860  21.5603130
  60.8152170  23.6136120  21.5060020  59.8457520  24.3547000  22.4019960
  65.1843000  25.6834140  16.8330430  65.5258700  26.4276370  16.3373750
  64.3555710  25.9965260  17.1955260  57.7818040  21.3829230  28.4728830
  57.4232980  22.0483080  29.0602170  57.4872600  20.5512780  28.8441450
  60.9831160  21.8413470  31.3568380  60.6831300  21.9870650  30.4596200
  61.7542400  21.2818760  31.2641770  66.3259610  26.6382470  29.3523510
  66.3404150  25.7063430  29.1342420  65.6184710  26.7242230  29.9913280
  68.0670410  25.0049980  22.1975940  68.4194230  24.4078110  21.5377310
  67.1832740  24.6794210  22.3684190  64.1533690  25.7647670  19.6046350
  64.8404820  26.3116880  19.9853940  63.3666110  26.3088400  19.6395960
  56.2926090  21.3820490  15.0963430  57.1620940  21.6645290  15.3799350
  55.8016410  22.1956360  14.9812240  63.4560900  22.7693700  19.2171710
  63.9123680  23.5798950  19.4431900  63.1049110  22.4516840  20.0490200
  65.7593510  28.2800040  26.4464010  66.4035730  28.4859420  27.1237430
  66.1222950  27.5188440  25.9934860  59.3572680  13.1131350  19.6894230
  59.2287310  13.1049250  20.6379150  58.5334700  13.4514440  19.3385240
  67.0325590  26.2832390  25.1641460  67.6747820  25.5825550  25.2773630
  67.5574940  27.0630830  24.9838350  70.8781310  26.5681010  14.8880600
  70.6518890  25.8511450  15.4805240  70.4877510  26.3193450  14.0502350
  68.8063210  27.0827290  28.3677520  69.1419450  27.6693980  29.0455440
  67.8863550  26.9520000  28.5975310  56.6597340  30.5947870  15.6625060
  57.0194980  31.1937210  15.0082330  56.5189680  31.1407760  16.4360090
  56.3566610  14.8722470  29.1500930  55.6425130  15.0719390  29.7553540
  56.7761650  14.0962040  29.5215730  70.4597560  24.4852950  16.5494760
  70.1719260  24.9465640  17.3372640  71.2549730  24.0250720  16.8178980
  56.6439200  28.8602730  30.1367460  56.7530320  27.9197470  29.9962850
  55.9919760  29.1257480  29.4881190  64.6351790  27.1318620  31.5365580
  64.3148660  26.4127860  32.0811270  63.9610150  27.8073690  31.6101640
  62.6765960  27.9779070  16.4798730  62.6676060  28.7108760  15.8643240
  61.7564320  27.7310650  16.5725690  58.2772600  23.1993960  17.2245490
  57.6700550  23.9392860  17.2340790  58.7521950  23.2893320  16.3983690
  67.8505390  17.3644780  26.9002380  68.2186210  16.5439990  27.2281950
  66.9903590  17.4246670  27.3158030  71.2167420  16.3201720  17.7089940
  70.5880580  16.4247390  16.9948170  70.7219340  16.5398500  18.4983820
  65.6625560  28.0407310  15.1423920  65.7637540  27.8371300  14.2125900
  64.7627300  27.7865590  15.3471700  63.1851450  18.5987670  19.1247820
  62.4767600  19.0674010  19.5661430  63.4695930  17.9409680  19.7593010
  64.8107380  20.0184370  27.1240350  65.3092630  20.4930190  27.7892200
  64.9530330  19.0947890  27.3310380  67.2166880  15.3238330  20.5643610
  67.0934660  15.3424460  19.6153120  68.1651440  15.3717270  20.6842010
  64.3043670  30.5593630  19.8371590  64.5585170  30.5215020  18.9150960
  63.3556150  30.4326960  19.8299840  61.3886470  16.9072750  16.4998530
  62.2377000  17.3442900  16.4338720  61.0217740  17.2193010  17.3270590
  70.3096250  21.4785510  21.4130100  69.3686390  21.4935740  21.5877790
  70.6240320  20.6921470  21.8590400  60.2877890  23.1605110  14.9734060
  61.0541160  23.0486470  15.5359490  60.3652580  22.4643080  14.3210830
  58.9824650  20.5930180  15.6566950  59.0628240  19.6457690  15.7684350
  59.8744400  20.9237060  15.7627610  59.7839360  30.7425570  22.7601490
  60.5201840  30.1941030  23.0310060  60.1680280  31.6081580  22.6207480
  56.6684840  26.8099140  18.6343000  55.7424620  27.0520280  18.6248410
  57.1341270  27.6373400  18.5127750  58.7897640  29.9271640  31.9487070
  59.5910370  30.2483690  32.3622470  58.2749460  29.5667220  32.6706980
  62.8941670  29.9155880  14.5827060  63.6870280  30.2044710  14.1308850
  62.3746020  29.4848050  13.9039540  67.6262270  26.0351510  31.8962480
  67.0200430  26.0583110  31.1558230  67.3216380  25.3034550  32.4329730
  69.0562640  29.7631800  30.5071890  70.0084390  29.6789820  30.4572130
  68.9090860  30.4273510  31.1805680  63.4119070  25.1359290  14.4469410
  63.3069710  24.5211640  15.1730790  63.2443290  24.6125180  13.6632420
  63.5633390  23.8216090  30.4258640  62.7979060  24.3901090  30.3413310
  63.7449350  23.5292300  29.5326870  66.6521800  24.1979320  15.0511400
  66.1031900  24.6448620  15.6954140  67.2741060  23.6928570  15.5749070
  70.7056740  25.5521420  30.9833660  71.4466210  25.8897180  30.4801120
  69.9429420  25.7213480  30.4303430  58.5418530  20.5574690  31.7873190
  58.5823870  20.2588560  32.6958420  59.3964030  20.9582300  31.6280710
  62.3196920  23.1570240  16.9476700  62.7413340  22.9910110  17.7908090
  62.4447760  22.3470470  16.4531840  60.4824340  19.1366790  29.7547680
  59.9520800  18.6457740  29.1271020  61.1512410  19.5650990  29.2205610
  64.8324560  22.1807850  14.1953800  65.3530220  21.4656870  13.8294950
  65.4792960  22.8193720  14.4954310  69.3802400  23.6036250  29.5188870
  69.7943420  23.7581330  30.3679290  68.4453400  23.7291470  29.6814650
  69.8524570  20.9432410  31.5228020  70.4345340  20.1884730  31.4348500
  70.0286340  21.4739850  30.7459500  60.9696640  16.1029160  29.8344970
  60.8753510  15.4849910  29.1095840  60.3894030  16.8295450  29.6074880
  63.7358080  14.6602400  26.8672360  63.2875380  14.6826660  26.0217910
  63.1023280  14.2621420  27.4642660  64.1417630  23.5556730  27.4884800
  64.5605740  24.3989460  27.3161040  63.2226260  23.6928770  27.2591580
  66.4781530  21.2872910  28.8722640  66.5977740  20.6914050  29.6117480
  67.3375530  21.3242600  28.4523940  68.8169430  21.8410100  27.4485150
  68.2904650  22.3652720  26.8450290  69.1600770  22.4737490  28.0794880
  61.2155820  19.2303470  13.8934860  61.0144880  18.3670830  14.2548200
  61.0447870  19.1436830  12.9556460  61.9925050  29.8609740  28.6042530
  61.4546140  30.5855800  28.2851230  62.2459010  29.3840080  27.8139870
  63.2450300  17.8294260  30.1298460  63.8349990  17.5210110  30.8176280
  62.4270540  17.3574010  30.2858360  68.0643730  17.4460070  30.3631480
  67.3759250  16.7841610  30.2981470  68.7849750  16.9998340  30.8079940
  68.6944130  14.0411700  16.4221740  68.9746420  13.1979600  16.7781160
  67.9209860  14.2734810  16.9360490  60.0138620  16.3304090  13.8812740
  60.3164520  16.3371520  12.9731890  60.7533210  15.9801950  14.3780400
  64.8487260  31.0960950  28.8629180  64.7745960  31.9996090  29.1701550
  63.9466100  30.7772850  28.8351250  63.2323550  15.2738710  14.8668940
  62.8845550  14.5962700  14.2871390  63.4336320  14.8128220  15.6812330
  65.3972590  30.2619460  16.4855540  66.2923380  30.6004430  16.5074300
  65.4290220  29.5398870  15.8579820  59.0368750  25.6346510  14.7142540
  59.4743620  26.1776180  15.3700120  59.5216480  24.8093460  14.7238880
  56.2514550  28.4235540  22.1662800  56.5817560  27.5556600  21.9341440
  56.6805550  28.6294060  22.9967760  60.8476470  26.7544550  19.8264770
  60.5472010  26.6309520  20.7268680  60.7413960  25.8953140  19.4180500
  56.7404760  29.2906130  24.9044430  56.3035750  29.4706930  25.7368580
  57.3082440  30.0480750  24.7626150  56.5729190  21.8026360  21.2633310
  55.9178030  21.5338000  20.6193010  57.4107140  21.6930840  20.8135290
  71.0618580  25.5175110  27.2897900  70.2478420  25.9472270  27.5523690
  71.4692780  26.1293520  26.6766950  69.5219630  16.5967650  15.4851800
  69.9404510  16.4098630  14.6448460  69.2155690  15.7446700  15.7954730
  57.6105120  22.1878930  25.8036650  57.9778160  22.1006330  26.6832670
  57.0415940  21.4245480  25.7043510  57.1621120  19.0988020  29.7095070
  56.2677170  19.0654780  30.0488780  57.7018670  19.2974810  30.4746320
  55.7867270  19.0125290  17.2058640  54.8831350  19.2755490  17.0310300
  56.2707890  19.2836460  16.4258600  58.3294480  18.0690830  15.1153020
  59.0386180  17.6474050  14.6300300  57.6134420  18.1366060  14.4836370
  57.9768640  14.1230160  14.1555670  58.6996770  14.6639100  14.4736890
  58.2493160  13.8493580  13.2797210  57.6660830  13.3736350  24.0578290
  58.3137020  12.8233730  23.6173450  58.0862670  13.6279500  24.8794100
  71.1194630  30.2693710  20.8166170  71.7153700  29.9478280  20.1400590
  71.3772780  29.7965530  21.6079440  57.4192830  13.5292020  26.8003610
  57.0707650  13.9855840  27.5661790  57.0880530  12.6349150  26.8826040
  59.0257200  26.7011620  30.9656800  58.9826830  26.3304530  31.8471260
  59.1568210  27.6389190  31.1058620  62.7263230  28.2571210  26.5666520
  62.4854590  28.5245770  25.6797040  63.6665870  28.4276940  26.6217380
  64.9317650  14.7203900  30.3223030  64.8706540  15.3125730  31.0718440
  65.8718030  14.6129860  30.1773290  67.5692210  14.3773960  29.9615320
  68.1832620  14.6953250  29.2996400  68.1141770  13.8922550  30.5811180
  58.0913470  13.0568220  30.0754380  58.6396460  12.8756270  29.3120490
  58.1568780  12.2662330  30.6110690  58.8645230  29.6473870  28.0854580
  58.2705550  29.5158570  28.8244620  58.8569070  28.8112010  27.6196680
  68.3100250  12.9406100  26.2884610  67.4360090  13.2741210  26.0857540
  68.2011000  12.4679280  27.1136480  69.2172230  15.1476970  27.6726330
  68.8885590  14.3328730  27.2928060  70.1654530  15.1046780  27.5492020
  71.6706840  30.9189010  24.6463900  71.2109810  31.6704820  24.2721920
  71.0419300  30.1995480  24.5878700  58.4957460  27.0132250  27.0362620
  57.7691520  26.3937540  26.9688570  58.5566610  27.4072860  26.1660700
  62.1002560  29.2277250  23.8212030  62.6167580  28.6164610  23.2960290
  62.7499940  29.7306030  24.3123040  64.8398060  30.1185740  24.6481010
  65.1275870  29.8640040  23.7714020  65.3521280  29.5663100  25.2386580
  66.0575070  13.8575940  25.2277520  65.2746860  14.3321440  25.5074280
  65.7638000  12.9530770  25.1190700  70.6096140  14.5599040  23.2726610
  71.0504230  14.5044140  22.4248210  70.3403730  15.4757050  23.3436790
  56.7787460  30.3306640  20.2459380  56.6109500  29.6977320  20.9441270
  55.9121970  30.5366040  19.8953570  57.4015480  14.1623420  17.7491240
  58.1594840  14.2752300  17.1755270  56.9392650  14.9992620  17.7034670
  63.9429290  16.2762690  20.7393550  63.1303800  15.9019580  20.3989430
  64.4470930  15.5207770  21.0414740  68.4454270  12.9405140  21.9776620
  69.0483640  13.5125350  22.4525140  67.7047260  13.5044580  21.7550520
  58.3850160  29.0239870  17.6909520  57.8597780  29.4047900  16.9871480
  58.3094740  29.6490640  18.4119230  59.7740630  14.6887470  16.2893210
  60.3033390  13.9017270  16.1601160  60.4068950  15.3678660  16.5228740
  61.9678470  14.4262610  19.3438600  61.3381210  13.7249920  19.5108730
  61.4283610  15.1866740  19.1271760  64.9070420  31.0401840  32.0149210
  65.8337730  30.8046110  32.0585170  64.8920850  31.8673840  31.5335240
  62.0934030  13.7046590  31.7791090  61.8118300  14.2080190  31.0151910
  62.4753730  12.9068340  31.4133220  60.9843130  30.9722250  16.5658770
  61.7161950  30.6881530  16.0182660  61.2436800  30.7335530  17.4558150
  60.1457920  27.0886980  16.5705100  59.5166800  27.5572080  17.1190930
  60.2605750  26.2436200  17.0051290  68.6949490  13.1200170  32.3571560
  68.5814940  13.4394780  33.2523080  69.5119230  13.5212680  32.0608840
  67.6007640  21.1392640   2.7206300  67.5201690  20.2247250   2.4498010
  67.1872060  21.6359710   2.0146010  65.7325680  22.9171660   4.6015570
  64.9567780  22.4372100   4.8914140  66.3838610  22.2377310   4.4271730
  59.7491510  23.2291470   5.4791330  58.9176390  22.9740180   5.8787840
  60.3572490  23.3002240   6.2149250  69.7533110  27.3231850   3.3814700
  69.2914640  26.5519090   3.7101870  70.5658660  27.3497920   3.8867150
  59.7292770  27.2631560   5.6749350  60.0320810  26.3729300   5.4959570
  60.4736360  27.8201780   5.4471600  56.1216470  20.7899010   5.1473420
  56.6932580  20.0221210   5.1477060  56.1218010  21.0887770   4.2380030
  65.9796420  29.6089860   3.0018690  65.3607860  30.0647360   2.4313130
  66.8348200  29.7641320   2.6008390  65.1734670  25.5928850   4.6085730
  65.1042950  24.6518790   4.4474860  65.9354530  25.6830260   5.1808300
  57.3641340  16.1983370   6.9342350  57.1844180  15.3009120   7.2145110
  56.9621420  16.7455240   7.6089300  66.2039840  18.3999230   4.8354660
  66.5804660  17.5271110   4.7228330  66.1059350  18.7357930   3.9445100
  69.9863960  15.8949670   1.7683000  70.8073580  15.4046240   1.8108480
  70.0198040  16.4847330   2.5214840  57.9828010  18.6943870   5.5424690
  58.6638120  18.9582240   6.1612090  57.6676060  17.8544740   5.8762700
  62.1752580  19.7411230   4.6297280  62.6830800  20.2392200   5.2702300
  62.7065820  18.9646430   4.4536640  60.4588680  14.3809790   8.8960700
  60.4607120  14.8982180   8.0906600  59.6292990  13.9039970   8.8730630
  61.7091530  24.0204970   7.0734200  61.3760910  24.6473890   7.7155270
  61.8858210  24.5466850   6.2935870  70.2225440  17.8350050   4.5410540
  69.5181010  18.1234940   5.1213650  70.5837600  18.6450160   4.1810100
  60.1404010  16.0919750   6.9031150  60.4820820  16.9361800   6.6085020
  59.2019820  16.2403490   7.0196490  60.9210630  25.9885770   8.8883380
  61.5384630  26.6636850   8.6067830  60.0603750  26.3973750   8.7970880
  63.8231900  13.5802020   3.2275740  64.1306880  13.0248910   2.5111240
  62.8932600  13.7146480   3.0448730  69.3746960  29.2969310   5.5183200
  69.3874120  28.8931600   4.6505460  68.8222180  30.0716600   5.4144630
  68.7732400  24.1999150   6.8465810  69.1901190  23.9859260   6.0119270
  69.4972220  24.4571940   7.4174430  69.6836510  19.3855690   7.8836920
  69.2707690  20.2109400   8.1376910  68.9512460  18.8000730   7.6913280
  61.8169300  22.1715590   2.7455590  61.4126300  21.4592840   2.2501490
  61.9032420  21.8268830   3.6343630  62.2851000  25.8583150   4.9094800
  61.9879290  25.2528620   4.2302580  63.2350820  25.8960460   4.7984160
  60.5297920  18.9458800   6.5254630  61.0812510  19.0554140   5.7507880
  61.0441430  19.3196400   7.2409860  70.3736610  29.4315020   8.5717900
  69.8967170  30.2387210   8.3790510  69.6898400  28.7793350   8.7244110
  61.3769430  25.5964840  11.5602600  60.4797960  25.8204810  11.8076000
  61.4022300  25.7199780  10.6114000  60.2040650  22.4678160  10.1359970
  60.0648420  23.3400960  10.5047370  59.3222010  22.1250970   9.9907910
  62.0021000  28.4099860  12.3445120  61.9736430  28.8142810  11.4773550
  61.8385970  27.4810220  12.1816720  56.1559300  24.2375710   6.0530880
  56.2339720  24.3724480   5.1086600  56.7700980  23.5291600   6.2459000
  67.2185810  30.0867810   9.3704110  67.7330480  29.9975820  10.1726540
  66.3754890  30.4327510   9.6632020  56.2118820  25.2789880   8.5925340
  56.3749860  24.8095240   7.7744710  56.6771270  24.7713440   9.2574180
  60.9837590  14.4095640   3.6285910  60.5405740  15.1905180   3.2970430
  61.5422580  14.7325530   4.3356850  65.2707400  17.2764160   9.2321230
  64.8086770  17.4847180  10.0441170  64.8685510  16.4623510   8.9291900
  70.2711910  18.4973110  10.3617890  69.4205500  18.1978860  10.6826960
  70.1113700  18.7415120   9.4501710  67.3661620  19.9974860  12.4616680
  67.6915030  19.1638610  12.1218910  68.1541950  20.5203380  12.6095010
  63.0213490  14.9542970   5.4875510  63.3185820  15.8605800   5.4067530
  63.5699050  14.4661750   4.8735080  63.2151020  20.4314790  12.0227430
  63.1194620  19.4909520  11.8727830  64.0583000  20.6529860  11.6275500
  58.3461560  16.8428460  10.1761210  57.9524950  17.6903670  10.3833990
  57.6579960  16.2054830  10.3669850  64.9206610  16.9263430  13.2457950
  64.2304930  16.7335630  13.8804040  65.6638910  17.2098070  13.7782250
  55.6478610  14.7656920   4.2091290  55.3591660  15.3359780   4.9216270
  56.3924370  14.2861370   4.5722520  67.1969580  20.7661870   6.0811870
  66.4650700  21.2748680   6.4301970  66.7993920  19.9491850   5.7800650
  63.6346970  17.4416070   4.4864360  63.6383030  17.0006020   3.6368900
  64.5298090  17.7633400   4.5936180  59.4849350  17.3242560   3.4458570
  59.1449400  17.8017790   4.2025620  58.7226670  16.8707680   3.0859670
  67.6595490  16.2195550   5.4934810  67.6768230  16.6704200   6.3376660
  67.4111070  15.3201190   5.7068250  71.0866240  13.6327730  11.3321190
  71.4112010  12.9017390  11.8579170  71.1222750  13.3141370  10.4302180
  57.7857800  24.6541310  10.7521150  57.4012590  24.0134980  11.3504110
  58.0969990  25.3577430  11.3215880  63.9354940  21.5017850   6.2329770
  64.3025070  21.0276420   6.9791110  63.7460000  22.3759420   6.5738110
  56.7995430  16.2461540   2.3623240  56.5142350  15.8817210   3.2001860
  56.7374290  15.5142000   1.7486380  61.7254310  20.5426490   8.5513980
  61.4211380  21.4218470   8.7764340  62.6800770  20.6026280   8.5871420
  66.3942880  23.8161900  10.8276220  66.3280190  22.8957570  10.5733810
  65.7648020  23.9137340  11.5420860  60.2973500  24.4167860   2.7859640
  60.8152170  23.6136120   2.7316530  59.8457520  24.3547000   3.6276470
  57.7818040  21.3829230   9.6985340  57.4232980  22.0483080  10.2858680
  57.4872600  20.5512780  10.0697960  60.9831160  21.8413470  12.5824890
  60.6831300  21.9870650  11.6852710  61.7542400  21.2818760  12.4898280
  66.3259610  26.6382470  10.5780020  66.3404150  25.7063430  10.3598930
  65.6184710  26.7242230  11.2169790  68.0670410  25.0049980   3.4232450
  68.4194230  24.4078110   2.7633820  67.1832740  24.6794210   3.5940700
  65.7593510  28.2800040   7.6720520  66.4035730  28.4859420   8.3493940
  66.1222950  27.5188440   7.2191370  67.0325590  26.2832390   6.3897970
  67.6747820  25.5825550   6.5030140  67.5574940  27.0630830   6.2094860
  68.8063210  27.0827290   9.5934030  69.1419450  27.6693980  10.2711950
  67.8863550  26.9520000   9.8231820  56.3566610  14.8722470  10.3757440
  55.6425130  15.0719390  10.9810050  56.7761650  14.0962040  10.7472240
  56.6439200  28.8602730  11.3623970  56.7530320  27.9197470  11.2219360
  55.9919760  29.1257480  10.7137700  64.6351790  27.1318620  12.7622090
  64.3148660  26.4127860  13.3067780  63.9610150  27.8073690  12.8358150
  67.8505390  17.3644780   8.1258890  68.2186210  16.5439990   8.4538460
  66.9903590  17.4246670   8.5414540  64.8107380  20.0184370   8.3496860
  65.3092630  20.4930190   9.0148710  64.9530330  19.0947890   8.5566890
  70.3096250  21.4785510   2.6386610  69.3686390  21.4935740   2.8134300
  70.6240320  20.6921470   3.0846910  59.7839360  30.7425570   3.9858000
  60.5201840  30.1941030   4.2566570  60.1680280  31.6081580   3.8463990
  58.7897640  29.9271640  13.1743580  59.5910370  30.2483690  13.5878980
  58.2749460  29.5667220  13.8963490  67.6262270  26.0351510  13.1218990
  67.0200430  26.0583110  12.3814740  67.3216380  25.3034550  13.6586240
  69.0562640  29.7631800  11.7328400  70.0084390  29.6789820  11.6828640
  68.9090860  30.4273510  12.4062190  56.5095450  22.4145100  12.1179630
  57.0134470  21.8352380  12.6895860  55.7702870  22.6985330  12.6556000
  63.5633390  23.8216090  11.6515150  62.7979060  24.3901090  11.5669820
  63.7449350  23.5292300  10.7583380  70.7056740  25.5521420  12.2090170
  71.4466210  25.8897180  11.7057630  69.9429420  25.7213480  11.6559940
  58.5418530  20.5574690  13.0129700  58.5823870  20.2588560  13.9214930
  59.3964030  20.9582300  12.8537220  60.4824340  19.1366790  10.9804190
  59.9520800  18.6457740  10.3527530  61.1512410  19.5650990  10.4462120
  69.3802400  23.6036250  10.7445380  69.7943420  23.7581330  11.5935800
  68.4453400  23.7291470  10.9071160  69.8524570  20.9432410  12.7484530
  70.4345340  20.1884730  12.6605010  70.0286340  21.4739850  11.9716010
  60.9696640  16.1029160  11.0601480  60.8753510  15.4849910  10.3352350
  60.3894030  16.8295450  10.8331390  63.7358080  14.6602400   8.0928870
  63.2875380  14.6826660   7.2474420  63.1023280  14.2621420   8.6899170
  64.1417630  23.5556730   8.7141310  64.5605740  24.3989460   8.5417550
  63.2226260  23.6928770   8.4848090  66.4781530  21.2872910  10.0979150
  66.5977740  20.6914050  10.8373990  67.3375530  21.3242600   9.6780450
  68.8169430  21.8410100   8.6741660  68.2904650  22.3652720   8.0706800
  69.1600770  22.4737490   9.3051390  61.9925050  29.8609740   9.8299040
  61.4546140  30.5855800   9.5107740  62.2459010  29.3840080   9.0396380
  63.2450300  17.8294260  11.3554970  63.8349990  17.5210110  12.0432790
  62.4270540  17.3574010  11.5114870  68.0643730  17.4460070  11.5887990
  67.3759250  16.7841610  11.5237980  68.7849750  16.9998340  12.0336450
  64.8487260  31.0960950  10.0885690  64.7745960  31.9996090  10.3958060
  63.9466100  30.7772850  10.0607760  56.2514550  28.4235540   3.3919310
  56.5817560  27.5556600   3.1597950  56.6805550  28.6294060   4.2224270
  56.7404760  29.2906130   6.1300940  56.3035750  29.4706930   6.9625090
  57.3082440  30.0480750   5.9882660  56.5729190  21.8026360   2.4889820
  55.9178030  21.5338000   1.8449520  57.4107140  21.6930840   2.0391800
  71.0618580  25.5175110   8.5154410  70.2478420  25.9472270   8.7780200
  71.4692780  26.1293520   7.9023460  57.6105120  22.1878930   7.0293160
  57.9778160  22.1006330   7.9089180  57.0415940  21.4245480   6.9300020
  57.1621120  19.0988020  10.9351580  56.2677170  19.0654780  11.2745290
  57.7018670  19.2974810  11.7002830  57.6660830  13.3736350   5.2834800
  58.3137020  12.8233730   4.8429960  58.0862670  13.6279500   6.1050610
  57.4192830  13.5292020   8.0260120  57.0707650  13.9855840   8.7918300
  57.0880530  12.6349150   8.1082550  59.0257200  26.7011620  12.1913310
  58.9826830  26.3304530  13.0727770  59.1568210  27.6389190  12.3315130
  62.7263230  28.2571210   7.7923030  62.4854590  28.5245770   6.9053550
  63.6665870  28.4276940   7.8473890  64.9317650  14.7203900  11.5479540
  64.8706540  15.3125730  12.2974950  65.8718030  14.6129860  11.4029800
  67.5692210  14.3773960  11.1871830  68.1832620  14.6953250  10.5252910
  68.1141770  13.8922550  11.8067690  58.0913470  13.0568220  11.3010890
  58.6396460  12.8756270  10.5377000  58.1568780  12.2662330  11.8367200
  58.8645230  29.6473870   9.3111090  58.2705550  29.5158570  10.0501130
  58.8569070  28.8112010   8.8453190  68.3100250  12.9406100   7.5141120
  67.4360090  13.2741210   7.3114050  68.2011000  12.4679280   8.3392990
  69.2172230  15.1476970   8.8982840  68.8885590  14.3328730   8.5184570
  70.1654530  15.1046780   8.7748530  71.6706840  30.9189010   5.8720410
  71.2109810  31.6704820   5.4978430  71.0419300  30.1995480   5.8135210
  58.4957460  27.0132250   8.2619130  57.7691520  26.3937540   8.1945080
  58.5566610  27.4072860   7.3917210  62.1002560  29.2277250   5.0468540
  62.6167580  28.6164610   4.5216800  62.7499940  29.7306030   5.5379550
  64.8398060  30.1185740   5.8737520  65.1275870  29.8640040   4.9970530
  65.3521280  29.5663100   6.4643090  66.0575070  13.8575940   6.4534030
  65.2746860  14.3321440   6.7330790  65.7638000  12.9530770   6.3447210
  70.6096140  14.5599040   4.4983120  71.0504230  14.5044140   3.6504720
  70.3403730  15.4757050   4.5693300  68.4454270  12.9405140   3.2033130
  69.0483640  13.5125350   3.6781650  67.7047260  13.5044580   2.9807030
  64.9070420  31.0401840  13.2405720  65.8337730  30.8046110  13.2841680
  64.8920850  31.8673840  12.7591750  62.0934030  13.7046590  13.0047600
  61.8118300  14.2080190  12.2408420  62.4753730  12.9068340  12.6389730
  68.6949490  13.1200170  13.5828070  68.5814940  13.4394780  14.4779590
  69.5119230  13.5212680  13.2865350  67.6007640   2.3649150  59.0436770
  67.5201690   1.4503760  58.7728480  67.1872060   2.8616220  58.3376480
  65.7325680   4.1428170  60.9246040  64.9567780   3.6628610  61.2144610
  66.3838610   3.4633820  60.7502200  59.7491510   4.4547980  61.8021800
  58.9176390   4.1996690  62.2018310  60.3572490   4.5258750  62.5379720
  69.7533110   8.5488360  59.7045170  69.2914640   7.7775600  60.0332340
  70.5658660   8.5754430  60.2097620  59.7292770   8.4888070  61.9979820
  60.0320810   7.5985810  61.8190040  60.4736360   9.0458290  61.7702070
  65.9796420  10.8346370  59.3249160  65.3607860  11.2903870  58.7543600
  66.8348200  10.9897830  58.9238860  65.1734670   6.8185360  60.9316200
  65.1042950   5.8775300  60.7705330  65.9354530   6.9086770  61.5038770
  66.8459770   5.7185610  56.7181070  66.2277040   6.1835060  56.1543790
  67.3583020   6.4113090  57.1350580  56.2142970   6.4042140  54.0920700
  55.8370950   6.8929240  53.3605600  56.4716040   7.0767420  54.7227230
  69.3746960  10.5225820  61.8413670  69.3874120  10.1188110  60.9735930
  68.8222180  11.2973110  61.7375100  70.6692380   7.2442040  56.9303840
  70.5588710   6.3016370  57.0553260  70.6660630   7.6057680  57.8166600
  66.2112660   2.8707360  56.2866330  65.2841940   2.8044740  56.5154800
  66.3637480   3.8087490  56.1721570  70.2409950   4.4327660  56.7901580
  69.6222370   4.0947210  56.1427880  70.2234400   3.7887420  57.4980770
  61.8169300   3.3972100  59.0686060  61.4126300   2.6849350  58.5731960
  61.9032420   3.0525340  59.9574100  62.2851000   7.0839660  61.2325270
  61.9879290   6.4785130  60.5533050  63.2350820   7.1216970  61.1214630
  68.4174650   3.6714470  53.7974330  68.8567930   2.8336900  53.6512150
  69.1303070   4.3043870  53.8838470  66.5270030   8.6110540  57.7655570
  66.9665940   9.3534870  57.3510960  66.4656920   8.8537110  58.6894530
  58.5173930   2.2917080  56.5692710  58.3971530   3.0179170  55.9573980
  58.2074820   1.5219990  56.0920620  56.1559300   5.4632220  62.3761350
  56.2339720   5.5980990  61.4317070  56.7700980   4.7548110  62.5689470
  57.4006930   7.1632410  58.7867530  56.9935010   7.3047000  57.9321130
  58.2919940   6.8792570  58.5838740  69.1940210  11.5979660  55.1218580
  69.0341350  11.3082600  56.0200410  69.0286920  10.8219790  54.5863810
  61.6728590  11.3778190  56.8990200  61.4971070  10.4613730  56.6858000
  60.8184330  11.7365480  57.1388000  68.8966340   9.1067220  53.6816580
  68.2031500   9.1044510  53.0218860  69.6389200   8.6826540  53.2510750
  68.4616270  10.7329930  57.7565070  68.9173220   9.9519310  58.0703690
  68.8008790  11.4436750  58.3006250  62.7088620   1.9785800  53.1984890
  62.1405520   1.5304050  52.5720800  63.4177620   2.3378580  52.6650040
  60.2536100   5.9743990  55.4711300  59.4798360   5.4341610  55.3110020
  60.9830730   5.4550600  55.1329060  60.2973500   5.6424370  59.1090110
  60.8152170   4.8392630  59.0547000  59.8457520   5.5803510  59.9506940
  65.1843000   6.9090650  54.3817410  65.5258700   7.6532880  53.8860730
  64.3555710   7.2221770  54.7442240  68.0670410   6.2306490  59.7462920
  68.4194230   5.6334620  59.0864290  67.1832740   5.9050720  59.9171170
  64.1533690   6.9904180  57.1533330  64.8404820   7.5373390  57.5340920
  63.3666110   7.5344910  57.1882940  56.2926090   2.6077000  52.6450410
  57.1620940   2.8901800  52.9286330  55.8016410   3.4212870  52.5299220
  63.4560900   3.9950210  56.7658690  63.9123680   4.8055460  56.9918880
  63.1049110   3.6773350  57.5977180  67.0325590   7.5088900  62.7128440
  67.6747820   6.8082060  62.8260610  67.5574940   8.2887340  62.5325330
  70.8781310   7.7937520  52.4367580  70.6518890   7.0767960  53.0292220
  70.4877510   7.5449960  51.5989330  56.6597340  11.8204380  53.2112040
  57.0194980  12.4193720  52.5569310  56.5189680  12.3664270  53.9847070
  70.4597560   5.7109460  54.0981740  70.1719260   6.1722150  54.8859620
  71.2549730   5.2507230  54.3665960  62.6765960   9.2035580  54.0285710
  62.6676060   9.9365270  53.4130220  61.7564320   8.9567160  54.1212670
  58.2772600   4.4250470  54.7732470  57.6700550   5.1649370  54.7827770
  58.7521950   4.5149830  53.9470670  65.6625560   9.2663820  52.6910900
  65.7637540   9.0627810  51.7612880  64.7627300   9.0122100  52.8958680
  64.3043670  11.7850140  57.3858570  64.5585170  11.7471530  56.4637940
  63.3556150  11.6583470  57.3786820  70.3096250   2.7042020  58.9617080
  69.3686390   2.7192250  59.1364770  70.6240320   1.9177980  59.4077380
  60.2877890   4.3861620  52.5221040  61.0541160   4.2742980  53.0846470
  60.3652580   3.6899590  51.8697810  59.7839360  11.9682080  60.3088470
  60.5201840  11.4197540  60.5797040  60.1680280  12.8338090  60.1694460
  56.6684840   8.0355650  56.1829980  55.7424620   8.2776790  56.1735390
  57.1341270   8.8629910  56.0614730  62.8941670  11.1412390  52.1314040
  63.6870280  11.4301220  51.6795830  62.3746020  10.7104560  51.4526520
  63.4119070   6.3615800  51.9956390  63.3069710   5.7468150  52.7217770
  63.2443290   5.8381690  51.2119400  66.6521800   5.4235830  52.5998380
  66.1031900   5.8705130  53.2441120  67.2741060   4.9185080  53.1236050
  62.3196920   4.3826750  54.4963680  62.7413340   4.2166620  55.3395070
  62.4447760   3.5726980  54.0018820  64.8324560   3.4064360  51.7440780
  65.3530220   2.6913380  51.3781930  65.4792960   4.0450230  52.0441290
  65.3972590  11.4875970  54.0342520  66.2923380  11.8260940  54.0561280
  65.4290220  10.7655380  53.4066800  59.0368750   6.8603020  52.2629520
  59.4743620   7.4032690  52.9187100  59.5216480   6.0349970  52.2725860
  56.2514550   9.6492050  59.7149780  56.5817560   8.7813110  59.4828420
  56.6805550   9.8550570  60.5454740  60.8476470   7.9801060  57.3751750
  60.5472010   7.8566030  58.2755660  60.7413960   7.1209650  56.9667480
  56.5729190   3.0282870  58.8120290  55.9178030   2.7594510  58.1679990
  57.4107140   2.9187350  58.3622270  71.1194630  11.4950220  58.3653150
  71.7153700  11.1734790  57.6887570  71.3772780  11.0222040  59.1566420
  71.6706840  12.1445520  62.1950880  71.2109810  12.8961330  61.8208900
  71.0419300  11.4251990  62.1365680  62.1002560  10.4533760  61.3699010
  62.6167580   9.8421120  60.8447270  62.7499940  10.9562540  61.8610020
  64.8398060  11.3442250  62.1967990  65.1275870  11.0896550  61.3201000
  65.3521280  10.7919610  62.7873560  56.7787460  11.5563150  57.7946360
  56.6109500  10.9233830  58.4928250  55.9121970  11.7622550  57.4440550
  58.3850160  10.2496380  55.2396500  57.8597780  10.6304410  54.5358460
  58.3094740  10.8747150  55.9606210  60.9843130  12.1978760  54.1145750
  61.7161950  11.9138040  53.5669640  61.2436800  11.9592040  55.0045130
  60.1457920   8.3143490  54.1192080  59.5166800   8.7828590  54.6677910
  60.2605750   7.4692710  54.5538270  67.6007640   2.3649150  40.2693280
  67.5201690   1.4503760  39.9984990  67.1872060   2.8616220  39.5632990
  65.7325680   4.1428170  42.1502550  64.9567780   3.6628610  42.4401120
  66.3838610   3.4633820  41.9758710  59.7491510   4.4547980  43.0278310
  58.9176390   4.1996690  43.4274820  60.3572490   4.5258750  43.7636230
  69.7533110   8.5488360  40.9301680  69.2914640   7.7775600  41.2588850
  70.5658660   8.5754430  41.4354130  59.7292770   8.4888070  43.2236330
  60.0320810   7.5985810  43.0446550  60.4736360   9.0458290  42.9958580
  65.9796420  10.8346370  40.5505670  65.3607860  11.2903870  39.9800110
  66.8348200  10.9897830  40.1495370  65.1734670   6.8185360  42.1572710
  65.1042950   5.8775300  41.9961840  65.9354530   6.9086770  42.7295280
  66.8459770   5.7185610  37.9437580  66.2277040   6.1835060  37.3800300
  67.3583020   6.4113090  38.3607090  61.7091530   5.2461480  44.6221180
  61.3760910   5.8730400  45.2642250  61.8858210   5.7723360  43.8422850
  60.9210630   7.2142280  46.4370360  61.5384630   7.8893360  46.1554810
  60.0603750   7.6230260  46.3457860  56.2142970   6.4042140  35.3177210
  55.8370950   6.8929240  34.5862110  56.4716040   7.0767420  35.9483740
  69.3746960  10.5225820  43.0670180  69.3874120  10.1188110  42.1992440
  68.8222180  11.2973110  42.9631610  70.6692380   7.2442040  38.1560350
  70.5588710   6.3016370  38.2809770  70.6660630   7.6057680  39.0423110
  68.7732400   5.4255660  44.3952790  69.1901190   5.2115770  43.5606250
  69.4972220   5.6828450  44.9661410  66.2112660   2.8707360  37.5122840
  65.2841940   2.8044740  37.7411310  66.3637480   3.8087490  37.3978080
  70.2409950   4.4327660  38.0158090  69.6222370   4.0947210  37.3684390
  70.2234400   3.7887420  38.7237280  61.8169300   3.3972100  40.2942570
  61.4126300   2.6849350  39.7988470  61.9032420   3.0525340  41.1830610
  62.2851000   7.0839660  42.4581780  61.9879290   6.4785130  41.7789560
  63.2350820   7.1216970  42.3471140  70.3736610  10.6571530  46.1204880
  69.8967170  11.4643720  45.9277490  69.6898400  10.0049860  46.2731090
  61.3769430   6.8221350  49.1089580  60.4797960   7.0461320  49.3562980
  61.4022300   6.9456290  48.1600980  68.4174650   3.6714470  35.0230840
  68.8567930   2.8336900  34.8768660  69.1303070   4.3043870  35.1094980
  60.2040650   3.6934670  47.6846950  60.0648420   4.5657470  48.0534350
  59.3222010   3.3507480  47.5394890  66.5270030   8.6110540  38.9912080
  66.9665940   9.3534870  38.5767470  66.4656920   8.8537110  39.9151040
  62.0021000   9.6356370  49.8932100  61.9736430  10.0399320  49.0260530
  61.8385970   8.7066730  49.7303700  58.5173930   2.2917080  37.7949220
  58.3971530   3.0179170  37.1830490  58.2074820   1.5219990  37.3177130
  56.1559300   5.4632220  43.6017860  56.2339720   5.5980990  42.6573580
  56.7700980   4.7548110  43.7945980  57.4006930   7.1632410  40.0124040
  56.9935010   7.3047000  39.1577640  58.2919940   6.8792570  39.8095250
  67.2185810  11.3124320  46.9191090  67.7330480  11.2232330  47.7213520
  66.3754890  11.6584020  47.2119000  69.1940210  11.5979660  36.3475090
  69.0341350  11.3082600  37.2456920  69.0286920  10.8219790  35.8120320
  61.6728590  11.3778190  38.1246710  61.4971070  10.4613730  37.9114510
  60.8184330  11.7365480  38.3644510  68.8966340   9.1067220  34.9073090
  68.2031500   9.1044510  34.2475370  69.6389200   8.6826540  34.4767260
  68.4616270  10.7329930  38.9821580  68.9173220   9.9519310  39.2960200
  68.8008790  11.4436750  39.5262760  56.2118820   6.5046390  46.1412320
  56.3749860   6.0351750  45.3231690  56.6771270   5.9969950  46.8061160
  62.7088620   1.9785800  34.4241400  62.1405520   1.5304050  33.7977310
  63.4177620   2.3378580  33.8906550  57.7857800   5.8797820  48.3008130
  57.4012590   5.2391490  48.8991090  58.0969990   6.5833940  48.8702860
  63.9354940   2.7274360  43.7816750  64.3025070   2.2532930  44.5278090
  63.7460000   3.6015930  44.1225090  61.7254310   1.7683000  46.1000960
  61.4211380   2.6474980  46.3251320  62.6800770   1.8282790  46.1358400
  60.2536100   5.9743990  36.6967810  59.4798360   5.4341610  36.5366530
  60.9830730   5.4550600  36.3585570  66.3942880   5.0418410  48.3763200
  66.3280190   4.1214080  48.1220790  65.7648020   5.1393850  49.0907840
  60.2973500   5.6424370  40.3346620  60.8152170   4.8392630  40.2803510
  59.8457520   5.5803510  41.1763450  65.1843000   6.9090650  35.6073920
  65.5258700   7.6532880  35.1117240  64.3555710   7.2221770  35.9698750
  57.7818040   2.6085740  47.2472320  57.4232980   3.2739590  47.8345660
  57.4872600   1.7769290  47.6184940  60.9831160   3.0669980  50.1311870
  60.6831300   3.2127160  49.2339690  61.7542400   2.5075270  50.0385260
  66.3259610   7.8638980  48.1267000  66.3404150   6.9319940  47.9085910
  65.6184710   7.9498740  48.7656770  68.0670410   6.2306490  40.9719430
  68.4194230   5.6334620  40.3120800  67.1832740   5.9050720  41.1427680
  64.1533690   6.9904180  38.3789840  64.8404820   7.5373390  38.7597430
  63.3666110   7.5344910  38.4139450  56.2926090   2.6077000  33.8706920
  57.1620940   2.8901800  34.1542840  55.8016410   3.4212870  33.7555730
  63.4560900   3.9950210  37.9915200  63.9123680   4.8055460  38.2175390
  63.1049110   3.6773350  38.8233690  65.7593510   9.5056550  45.2207500
  66.4035730   9.7115930  45.8980920  66.1222950   8.7444950  44.7678350
  67.0325590   7.5088900  43.9384950  67.6747820   6.8082060  44.0517120
  67.5574940   8.2887340  43.7581840  70.8781310   7.7937520  33.6624090
  70.6518890   7.0767960  34.2548730  70.4877510   7.5449960  32.8245840
  68.8063210   8.3083800  47.1421010  69.1419450   8.8950490  47.8198930
  67.8863550   8.1776510  47.3718800  56.6597340  11.8204380  34.4368550
  57.0194980  12.4193720  33.7825820  56.5189680  12.3664270  35.2103580
  70.4597560   5.7109460  35.3238250  70.1719260   6.1722150  36.1116130
  71.2549730   5.2507230  35.5922470  56.6439200  10.0859240  48.9110950
  56.7530320   9.1453980  48.7706340  55.9919760  10.3513990  48.2624680
  64.6351790   8.3575130  50.3109070  64.3148660   7.6384370  50.8554760
  63.9610150   9.0330200  50.3845130  62.6765960   9.2035580  35.2542220
  62.6676060   9.9365270  34.6386730  61.7564320   8.9567160  35.3469180
  58.2772600   4.4250470  35.9988980  57.6700550   5.1649370  36.0084280
  58.7521950   4.5149830  35.1727180  65.6625560   9.2663820  33.9167410
  65.7637540   9.0627810  32.9869390  64.7627300   9.0122100  34.1215190
  64.3043670  11.7850140  38.6115080  64.5585170  11.7471530  37.6894450
  63.3556150  11.6583470  38.6043330  70.3096250   2.7042020  40.1873590
  69.3686390   2.7192250  40.3621280  70.6240320   1.9177980  40.6333890
  60.2877890   4.3861620  33.7477550  61.0541160   4.2742980  34.3102980
  60.3652580   3.6899590  33.0954320  59.7839360  11.9682080  41.5344980
  60.5201840  11.4197540  41.8053550  60.1680280  12.8338090  41.3950970
  56.6684840   8.0355650  37.4086490  55.7424620   8.2776790  37.3991900
  57.1341270   8.8629910  37.2871240  58.7897640  11.1528150  50.7230560
  59.5910370  11.4740200  51.1365960  58.2749460  10.7923730  51.4450470
  62.8941670  11.1412390  33.3570550  63.6870280  11.4301220  32.9052340
  62.3746020  10.7104560  32.6783030  67.6262270   7.2608020  50.6705970
  67.0200430   7.2839620  49.9301720  67.3216380   6.5291060  51.2073220
  69.0562640  10.9888310  49.2815380  70.0084390  10.9046330  49.2315620
  68.9090860  11.6530020  49.9549170  56.5095450   3.6401610  49.6666610
  57.0134470   3.0608890  50.2382840  55.7702870   3.9241840  50.2042980
  63.4119070   6.3615800  33.2212900  63.3069710   5.7468150  33.9474280
  63.2443290   5.8381690  32.4375910  63.5633390   5.0472600  49.2002130
  62.7979060   5.6157600  49.1156800  63.7449350   4.7548810  48.3070360
  66.6521800   5.4235830  33.8254890  66.1031900   5.8705130  34.4697630
  67.2741060   4.9185080  34.3492560  70.7056740   6.7777930  49.7577150
  71.4466210   7.1153690  49.2544610  69.9429420   6.9469990  49.2046920
  58.5418530   1.7831200  50.5616680  58.5823870   1.4845070  51.4701910
  59.3964030   2.1838810  50.4024200  62.3196920   4.3826750  35.7220190
  62.7413340   4.2166620  36.5651580  62.4447760   3.5726980  35.2275330
  64.8324560   3.4064360  32.9697290  65.3530220   2.6913380  32.6038440
  65.4792960   4.0450230  33.2697800  69.3802400   4.8292760  48.2932360
  69.7943420   4.9837840  49.1422780  68.4453400   4.9547980  48.4558140
  69.8524570   2.1688920  50.2971510  70.4345340   1.4141240  50.2091990
  70.0286340   2.6996360  49.5202990  64.1417630   4.7813240  46.2628290
  64.5605740   5.6245970  46.0904530  63.2226260   4.9185280  46.0335070
  66.4781530   2.5129420  47.6466130  66.5977740   1.9170560  48.3860970
  67.3375530   2.5499110  47.2267430  68.8169430   3.0666610  46.2228640
  68.2904650   3.5909230  45.6193780  69.1600770   3.6994000  46.8538370
  61.9925050  11.0866250  47.3786020  61.4546140  11.8112310  47.0594720
  62.2459010  10.6096590  46.5883360  64.8487260  12.3217460  47.6372670
  64.7745960  13.2252600  47.9445040  63.9466100  12.0029360  47.6094740
  65.3972590  11.4875970  35.2599030  66.2923380  11.8260940  35.2817790
  65.4290220  10.7655380  34.6323310  59.0368750   6.8603020  33.4886030
  59.4743620   7.4032690  34.1443610  59.5216480   6.0349970  33.4982370
  56.2514550   9.6492050  40.9406290  56.5817560   8.7813110  40.7084930
  56.6805550   9.8550570  41.7711250  60.8476470   7.9801060  38.6008260
  60.5472010   7.8566030  39.5012170  60.7413960   7.1209650  38.1923990
  56.7404760  10.5162640  43.6787920  56.3035750  10.6963440  44.5112070
  57.3082440  11.2737260  43.5369640  56.5729190   3.0282870  40.0376800
  55.9178030   2.7594510  39.3936500  57.4107140   2.9187350  39.5878780
  71.0618580   6.7431620  46.0641390  70.2478420   7.1728780  46.3267180
  71.4692780   7.3550030  45.4510440  57.6105120   3.4135440  44.5780140
  57.9778160   3.3262840  45.4576160  57.0415940   2.6501990  44.4787000
  71.1194630  11.4950220  39.5909660  71.7153700  11.1734790  38.9144080
  71.3772780  11.0222040  40.3822930  59.0257200   7.9268130  49.7400290
  58.9826830   7.5561040  50.6214750  59.1568210   8.8645700  49.8802110
  62.7263230   9.4827720  45.3410010  62.4854590   9.7502280  44.4540530
  63.6665870   9.6533450  45.3960870  58.8645230  10.8730380  46.8598070
  58.2705550  10.7415080  47.5988110  58.8569070  10.0368520  46.3940170
  71.6706840  12.1445520  43.4207390  71.2109810  12.8961330  43.0465410
  71.0419300  11.4251990  43.3622190  58.4957460   8.2388760  45.8106110
  57.7691520   7.6194050  45.7432060  58.5566610   8.6329370  44.9404190
  62.1002560  10.4533760  42.5955520  62.6167580   9.8421120  42.0703780
  62.7499940  10.9562540  43.0866530  64.8398060  11.3442250  43.4224500
  65.1275870  11.0896550  42.5457510  65.3521280  10.7919610  44.0130070
  56.7787460  11.5563150  39.0202870  56.6109500  10.9233830  39.7184760
  55.9121970  11.7622550  38.6697060  58.3850160  10.2496380  36.4653010
  57.8597780  10.6304410  35.7614970  58.3094740  10.8747150  37.1862720
  64.9070420  12.2658350  50.7892700  65.8337730  12.0302620  50.8328660
  64.8920850  13.0930350  50.3078730  60.9843130  12.1978760  35.3402260
  61.7161950  11.9138040  34.7926150  61.2436800  11.9592040  36.2301640
  60.1457920   8.3143490  35.3448590  59.5166800   8.7828590  35.8934420
  60.2605750   7.4692710  35.7794780  67.6007640   2.3649150  21.4949790
  67.5201690   1.4503760  21.2241500  67.1872060   2.8616220  20.7889500
  65.7325680   4.1428170  23.3759060  64.9567780   3.6628610  23.6657630
  66.3838610   3.4633820  23.2015220  59.7491510   4.4547980  24.2534820
  58.9176390   4.1996690  24.6531330  60.3572490   4.5258750  24.9892740
  69.7533110   8.5488360  22.1558190  69.2914640   7.7775600  22.4845360
  70.5658660   8.5754430  22.6610640  59.7292770   8.4888070  24.4492840
  60.0320810   7.5985810  24.2703060  60.4736360   9.0458290  24.2215090
  65.9796420  10.8346370  21.7762180  65.3607860  11.2903870  21.2056620
  66.8348200  10.9897830  21.3751880  65.1734670   6.8185360  23.3829220
  65.1042950   5.8775300  23.2218350  65.9354530   6.9086770  23.9551790
  66.8459770   5.7185610  19.1694090  66.2277040   6.1835060  18.6056810
  67.3583020   6.4113090  19.5863600  61.7091530   5.2461480  25.8477690
  61.3760910   5.8730400  26.4898760  61.8858210   5.7723360  25.0679360
  60.9210630   7.2142280  27.6626870  61.5384630   7.8893360  27.3811320
  60.0603750   7.6230260  27.5714370  56.2142970   6.4042140  16.5433720
  55.8370950   6.8929240  15.8118620  56.4716040   7.0767420  17.1740250
  69.3746960  10.5225820  24.2926690  69.3874120  10.1188110  23.4248950
  68.8222180  11.2973110  24.1888120  70.6692380   7.2442040  19.3816860
  70.5588710   6.3016370  19.5066280  70.6660630   7.6057680  20.2679620
  68.7732400   5.4255660  25.6209300  69.1901190   5.2115770  24.7862760
  69.4972220   5.6828450  26.1917920  66.2112660   2.8707360  18.7379350
  65.2841940   2.8044740  18.9667820  66.3637480   3.8087490  18.6234590
  70.2409950   4.4327660  19.2414600  69.6222370   4.0947210  18.5940900
  70.2234400   3.7887420  19.9493790  61.8169300   3.3972100  21.5199080
  61.4126300   2.6849350  21.0244980  61.9032420   3.0525340  22.4087120
  62.2851000   7.0839660  23.6838290  61.9879290   6.4785130  23.0046070
  63.2350820   7.1216970  23.5727650  70.3736610  10.6571530  27.3461390
  69.8967170  11.4643720  27.1534000  69.6898400  10.0049860  27.4987600
  61.3769430   6.8221350  30.3346090  60.4797960   7.0461320  30.5819490
  61.4022300   6.9456290  29.3857490  68.4174650   3.6714470  16.2487350
  68.8567930   2.8336900  16.1025170  69.1303070   4.3043870  16.3351490
  60.2040650   3.6934670  28.9103460  60.0648420   4.5657470  29.2790860
  59.3222010   3.3507480  28.7651400  66.5270030   8.6110540  20.2168590
  66.9665940   9.3534870  19.8023980  66.4656920   8.8537110  21.1407550
  62.0021000   9.6356370  31.1188610  61.9736430  10.0399320  30.2517040
  61.8385970   8.7066730  30.9560210  58.5173930   2.2917080  19.0205730
  58.3971530   3.0179170  18.4087000  58.2074820   1.5219990  18.5433640
  56.1559300   5.4632220  24.8274370  56.2339720   5.5980990  23.8830090
  56.7700980   4.7548110  25.0202490  57.4006930   7.1632410  21.2380550
  56.9935010   7.3047000  20.3834150  58.2919940   6.8792570  21.0351760
  67.2185810  11.3124320  28.1447600  67.7330480  11.2232330  28.9470030
  66.3754890  11.6584020  28.4375510  69.1940210  11.5979660  17.5731600
  69.0341350  11.3082600  18.4713430  69.0286920  10.8219790  17.0376830
  61.6728590  11.3778190  19.3503220  61.4971070  10.4613730  19.1371020
  60.8184330  11.7365480  19.5901020  68.8966340   9.1067220  16.1329600
  68.2031500   9.1044510  15.4731880  69.6389200   8.6826540  15.7023770
  68.4616270  10.7329930  20.2078090  68.9173220   9.9519310  20.5216710
  68.8008790  11.4436750  20.7519270  56.2118820   6.5046390  27.3668830
  56.3749860   6.0351750  26.5488200  56.6771270   5.9969950  28.0317670
  62.7088620   1.9785800  15.6497910  62.1405520   1.5304050  15.0233820
  63.4177620   2.3378580  15.1163060  57.7857800   5.8797820  29.5264640
  57.4012590   5.2391490  30.1247600  58.0969990   6.5833940  30.0959370
  63.9354940   2.7274360  25.0073260  64.3025070   2.2532930  25.7534600
  63.7460000   3.6015930  25.3481600  61.7254310   1.7683000  27.3257470
  61.4211380   2.6474980  27.5507830  62.6800770   1.8282790  27.3614910
  60.2536100   5.9743990  17.9224320  59.4798360   5.4341610  17.7623040
  60.9830730   5.4550600  17.5842080  66.3942880   5.0418410  29.6019710
  66.3280190   4.1214080  29.3477300  65.7648020   5.1393850  30.3164350
  60.2973500   5.6424370  21.5603130  60.8152170   4.8392630  21.5060020
  59.8457520   5.5803510  22.4019960  65.1843000   6.9090650  16.8330430
  65.5258700   7.6532880  16.3373750  64.3555710   7.2221770  17.1955260
  57.7818040   2.6085740  28.4728830  57.4232980   3.2739590  29.0602170
  57.4872600   1.7769290  28.8441450  60.9831160   3.0669980  31.3568380
  60.6831300   3.2127160  30.4596200  61.7542400   2.5075270  31.2641770
  66.3259610   7.8638980  29.3523510  66.3404150   6.9319940  29.1342420
  65.6184710   7.9498740  29.9913280  68.0670410   6.2306490  22.1975940
  68.4194230   5.6334620  21.5377310  67.1832740   5.9050720  22.3684190
  64.1533690   6.9904180  19.6046350  64.8404820   7.5373390  19.9853940
  63.3666110   7.5344910  19.6395960  56.2926090   2.6077000  15.0963430
  57.1620940   2.8901800  15.3799350  55.8016410   3.4212870  14.9812240
  63.4560900   3.9950210  19.2171710  63.9123680   4.8055460  19.4431900
  63.1049110   3.6773350  20.0490200  65.7593510   9.5056550  26.4464010
  66.4035730   9.7115930  27.1237430  66.1222950   8.7444950  25.9934860
  67.0325590   7.5088900  25.1641460  67.6747820   6.8082060  25.2773630
  67.5574940   8.2887340  24.9838350  70.8781310   7.7937520  14.8880600
  70.6518890   7.0767960  15.4805240  70.4877510   7.5449960  14.0502350
  68.8063210   8.3083800  28.3677520  69.1419450   8.8950490  29.0455440
  67.8863550   8.1776510  28.5975310  56.6597340  11.8204380  15.6625060
  57.0194980  12.4193720  15.0082330  56.5189680  12.3664270  16.4360090
  70.4597560   5.7109460  16.5494760  70.1719260   6.1722150  17.3372640
  71.2549730   5.2507230  16.8178980  56.6439200  10.0859240  30.1367460
  56.7530320   9.1453980  29.9962850  55.9919760  10.3513990  29.4881190
  64.6351790   8.3575130  31.5365580  64.3148660   7.6384370  32.0811270
  63.9610150   9.0330200  31.6101640  62.6765960   9.2035580  16.4798730
  62.6676060   9.9365270  15.8643240  61.7564320   8.9567160  16.5725690
  58.2772600   4.4250470  17.2245490  57.6700550   5.1649370  17.2340790
  58.7521950   4.5149830  16.3983690  65.6625560   9.2663820  15.1423920
  65.7637540   9.0627810  14.2125900  64.7627300   9.0122100  15.3471700
  64.3043670  11.7850140  19.8371590  64.5585170  11.7471530  18.9150960
  63.3556150  11.6583470  19.8299840  70.3096250   2.7042020  21.4130100
  69.3686390   2.7192250  21.5877790  70.6240320   1.9177980  21.8590400
  60.2877890   4.3861620  14.9734060  61.0541160   4.2742980  15.5359490
  60.3652580   3.6899590  14.3210830  59.7839360  11.9682080  22.7601490
  60.5201840  11.4197540  23.0310060  60.1680280  12.8338090  22.6207480
  56.6684840   8.0355650  18.6343000  55.7424620   8.2776790  18.6248410
  57.1341270   8.8629910  18.5127750  58.7897640  11.1528150  31.9487070
  59.5910370  11.4740200  32.3622470  58.2749460  10.7923730  32.6706980
  62.8941670  11.1412390  14.5827060  63.6870280  11.4301220  14.1308850
  62.3746020  10.7104560  13.9039540  67.6262270   7.2608020  31.8962480
  67.0200430   7.2839620  31.1558230  67.3216380   6.5291060  32.4329730
  69.0562640  10.9888310  30.5071890  70.0084390  10.9046330  30.4572130
  68.9090860  11.6530020  31.1805680  56.5095450   3.6401610  30.8923120
  57.0134470   3.0608890  31.4639350  55.7702870   3.9241840  31.4299490
  63.4119070   6.3615800  14.4469410  63.3069710   5.7468150  15.1730790
  63.2443290   5.8381690  13.6632420  63.5633390   5.0472600  30.4258640
  62.7979060   5.6157600  30.3413310  63.7449350   4.7548810  29.5326870
  66.6521800   5.4235830  15.0511400  66.1031900   5.8705130  15.6954140
  67.2741060   4.9185080  15.5749070  70.7056740   6.7777930  30.9833660
  71.4466210   7.1153690  30.4801120  69.9429420   6.9469990  30.4303430
  58.5418530   1.7831200  31.7873190  58.5823870   1.4845070  32.6958420
  59.3964030   2.1838810  31.6280710  62.3196920   4.3826750  16.9476700
  62.7413340   4.2166620  17.7908090  62.4447760   3.5726980  16.4531840
  64.8324560   3.4064360  14.1953800  65.3530220   2.6913380  13.8294950
  65.4792960   4.0450230  14.4954310  69.3802400   4.8292760  29.5188870
  69.7943420   4.9837840  30.3679290  68.4453400   4.9547980  29.6814650
  69.8524570   2.1688920  31.5228020  70.4345340   1.4141240  31.4348500
  70.0286340   2.6996360  30.7459500  64.1417630   4.7813240  27.4884800
  64.5605740   5.6245970  27.3161040  63.2226260   4.9185280  27.2591580
  66.4781530   2.5129420  28.8722640  66.5977740   1.9170560  29.6117480
  67.3375530   2.5499110  28.4523940  68.8169430   3.0666610  27.4485150
  68.2904650   3.5909230  26.8450290  69.1600770   3.6994000  28.0794880
  61.9925050  11.0866250  28.6042530  61.4546140  11.8112310  28.2851230
  62.2459010  10.6096590  27.8139870  64.8487260  12.3217460  28.8629180
  64.7745960  13.2252600  29.1701550  63.9466100  12.0029360  28.8351250
  65.3972590  11.4875970  16.4855540  66.2923380  11.8260940  16.5074300
  65.4290220  10.7655380  15.8579820  59.0368750   6.8603020  14.7142540
  59.4743620   7.4032690  15.3700120  59.5216480   6.0349970  14.7238880
  56.2514550   9.6492050  22.1662800  56.5817560   8.7813110  21.9341440
  56.6805550   9.8550570  22.9967760  60.8476470   7.9801060  19.8264770
  60.5472010   7.8566030  20.7268680  60.7413960   7.1209650  19.4180500
  56.7404760  10.5162640  24.9044430  56.3035750  10.6963440  25.7368580
  57.3082440  11.2737260  24.7626150  56.5729190   3.0282870  21.2633310
  55.9178030   2.7594510  20.6193010  57.4107140   2.9187350  20.8135290
  71.0618580   6.7431620  27.2897900  70.2478420   7.1728780  27.5523690
  71.4692780   7.3550030  26.6766950  57.6105120   3.4135440  25.8036650
  57.9778160   3.3262840  26.6832670  57.0415940   2.6501990  25.7043510
  71.1194630  11.4950220  20.8166170  71.7153700  11.1734790  20.1400590
  71.3772780  11.0222040  21.6079440  59.0257200   7.9268130  30.9656800
  58.9826830   7.5561040  31.8471260  59.1568210   8.8645700  31.1058620
  62.7263230   9.4827720  26.5666520  62.4854590   9.7502280  25.6797040
  63.6665870   9.6533450  26.6217380  58.8645230  10.8730380  28.0854580
  58.2705550  10.7415080  28.8244620  58.8569070  10.0368520  27.6196680
  71.6706840  12.1445520  24.6463900  71.2109810  12.8961330  24.2721920
  71.0419300  11.4251990  24.5878700  58.4957460   8.2388760  27.0362620
  57.7691520   7.6194050  26.9688570  58.5566610   8.6329370  26.1660700
  62.1002560  10.4533760  23.8212030  62.6167580   9.8421120  23.2960290
  62.7499940  10.9562540  24.3123040  64.8398060  11.3442250  24.6481010
  65.1275870  11.0896550  23.7714020  65.3521280  10.7919610  25.2386580
  56.7787460  11.5563150  20.2459380  56.6109500  10.9233830  20.9441270
  55.9121970  11.7622550  19.8953570  58.3850160  10.2496380  17.6909520
  57.8597780  10.6304410  16.9871480  58.3094740  10.8747150  18.4119230
  64.9070420  12.2658350  32.0149210  65.8337730  12.0302620  32.0585170
  64.8920850  13.0930350  31.5335240  60.9843130  12.1978760  16.5658770
  61.7161950  11.9138040  16.0182660  61.2436800  11.9592040  17.4558150
  60.1457920   8.3143490  16.5705100  59.5166800   8.7828590  17.1190930
  60.2605750   7.4692710  17.0051290  67.6007640   2.3649150   2.7206300
  67.5201690   1.4503760   2.4498010  67.1872060   2.8616220   2.0146010
  65.7325680   4.1428170   4.6015570  64.9567780   3.6628610   4.8914140
  66.3838610   3.4633820   4.4271730  59.7491510   4.4547980   5.4791330
  58.9176390   4.1996690   5.8787840  60.3572490   4.5258750   6.2149250
  69.7533110   8.5488360   3.3814700  69.2914640   7.7775600   3.7101870
  70.5658660   8.5754430   3.8867150  59.7292770   8.4888070   5.6749350
  60.0320810   7.5985810   5.4959570  60.4736360   9.0458290   5.4471600
  65.9796420  10.8346370   3.0018690  65.3607860  11.2903870   2.4313130
  66.8348200  10.9897830   2.6008390  65.1734670   6.8185360   4.6085730
  65.1042950   5.8775300   4.4474860  65.9354530   6.9086770   5.1808300
  61.7091530   5.2461480   7.0734200  61.3760910   5.8730400   7.7155270
  61.8858210   5.7723360   6.2935870  60.9210630   7.2142280   8.8883380
  61.5384630   7.8893360   8.6067830  60.0603750   7.6230260   8.7970880
  69.3746960  10.5225820   5.5183200  69.3874120  10.1188110   4.6505460
  68.8222180  11.2973110   5.4144630  68.7732400   5.4255660   6.8465810
  69.1901190   5.2115770   6.0119270  69.4972220   5.6828450   7.4174430
  61.8169300   3.3972100   2.7455590  61.4126300   2.6849350   2.2501490
  61.9032420   3.0525340   3.6343630  62.2851000   7.0839660   4.9094800
  61.9879290   6.4785130   4.2302580  63.2350820   7.1216970   4.7984160
  70.3736610  10.6571530   8.5717900  69.8967170  11.4643720   8.3790510
  69.6898400  10.0049860   8.7244110  61.3769430   6.8221350  11.5602600
  60.4797960   7.0461320  11.8076000  61.4022300   6.9456290  10.6114000
  60.2040650   3.6934670  10.1359970  60.0648420   4.5657470  10.5047370
  59.3222010   3.3507480   9.9907910  62.0021000   9.6356370  12.3445120
  61.9736430  10.0399320  11.4773550  61.8385970   8.7066730  12.1816720
  56.1559300   5.4632220   6.0530880  56.2339720   5.5980990   5.1086600
  56.7700980   4.7548110   6.2459000  67.2185810  11.3124320   9.3704110
  67.7330480  11.2232330  10.1726540  66.3754890  11.6584020   9.6632020
  56.2118820   6.5046390   8.5925340  56.3749860   6.0351750   7.7744710
  56.6771270   5.9969950   9.2574180  57.7857800   5.8797820  10.7521150
  57.4012590   5.2391490  11.3504110  58.0969990   6.5833940  11.3215880
  63.9354940   2.7274360   6.2329770  64.3025070   2.2532930   6.9791110
  63.7460000   3.6015930   6.5738110  61.7254310   1.7683000   8.5513980
  61.4211380   2.6474980   8.7764340  62.6800770   1.8282790   8.5871420
  66.3942880   5.0418410  10.8276220  66.3280190   4.1214080  10.5733810
  65.7648020   5.1393850  11.5420860  60.2973500   5.6424370   2.7859640
  60.8152170   4.8392630   2.7316530  59.8457520   5.5803510   3.6276470
  57.7818040   2.6085740   9.6985340  57.4232980   3.2739590  10.2858680
  57.4872600   1.7769290  10.0697960  60.9831160   3.0669980  12.5824890
  60.6831300   3.2127160  11.6852710  61.7542400   2.5075270  12.4898280
  66.3259610   7.8638980  10.5780020  66.3404150   6.9319940  10.3598930
  65.6184710   7.9498740  11.2169790  68.0670410   6.2306490   3.4232450
  68.4194230   5.6334620   2.7633820  67.1832740   5.9050720   3.5940700
  65.7593510   9.5056550   7.6720520  66.4035730   9.7115930   8.3493940
  66.1222950   8.7444950   7.2191370  67.0325590   7.5088900   6.3897970
  67.6747820   6.8082060   6.5030140  67.5574940   8.2887340   6.2094860
  68.8063210   8.3083800   9.5934030  69.1419450   8.8950490  10.2711950
  67.8863550   8.1776510   9.8231820  56.6439200  10.0859240  11.3623970
  56.7530320   9.1453980  11.2219360  55.9919760  10.3513990  10.7137700
  64.6351790   8.3575130  12.7622090  64.3148660   7.6384370  13.3067780
  63.9610150   9.0330200  12.8358150  70.3096250   2.7042020   2.6386610
  69.3686390   2.7192250   2.8134300  70.6240320   1.9177980   3.0846910
  59.7839360  11.9682080   3.9858000  60.5201840  11.4197540   4.2566570
  60.1680280  12.8338090   3.8463990  58.7897640  11.1528150  13.1743580
  59.5910370  11.4740200  13.5878980  58.2749460  10.7923730  13.8963490
  67.6262270   7.2608020  13.1218990  67.0200430   7.2839620  12.3814740
  67.3216380   6.5291060  13.6586240  69.0562640  10.9888310  11.7328400
  70.0084390  10.9046330  11.6828640  68.9090860  11.6530020  12.4062190
  56.5095450   3.6401610  12.1179630  57.0134470   3.0608890  12.6895860
  55.7702870   3.9241840  12.6556000  63.5633390   5.0472600  11.6515150
  62.7979060   5.6157600  11.5669820  63.7449350   4.7548810  10.7583380
  70.7056740   6.7777930  12.2090170  71.4466210   7.1153690  11.7057630
  69.9429420   6.9469990  11.6559940  58.5418530   1.7831200  13.0129700
  58.5823870   1.4845070  13.9214930  59.3964030   2.1838810  12.8537220
  69.3802400   4.8292760  10.7445380  69.7943420   4.9837840  11.5935800
  68.4453400   4.9547980  10.9071160  69.8524570   2.1688920  12.7484530
  70.4345340   1.4141240  12.6605010  70.0286340   2.6996360  11.9716010
  64.1417630   4.7813240   8.7141310  64.5605740   5.6245970   8.5417550
  63.2226260   4.9185280   8.4848090  66.4781530   2.5129420  10.0979150
  66.5977740   1.9170560  10.8373990  67.3375530   2.5499110   9.6780450
  68.8169430   3.0666610   8.6741660  68.2904650   3.5909230   8.0706800
  69.1600770   3.6994000   9.3051390  61.9925050  11.0866250   9.8299040
  61.4546140  11.8112310   9.5107740  62.2459010  10.6096590   9.0396380
  64.8487260  12.3217460  10.0885690  64.7745960  13.2252600  10.3958060
  63.9466100  12.0029360  10.0607760  56.2514550   9.6492050   3.3919310
  56.5817560   8.7813110   3.1597950  56.6805550   9.8550570   4.2224270
  56.7404760  10.5162640   6.1300940  56.3035750  10.6963440   6.9625090
  57.3082440  11.2737260   5.9882660  56.5729190   3.0282870   2.4889820
  55.9178030   2.7594510   1.8449520  57.4107140   2.9187350   2.0391800
  71.0618580   6.7431620   8.5154410  70.2478420   7.1728780   8.7780200
  71.4692780   7.3550030   7.9023460  57.6105120   3.4135440   7.0293160
  57.9778160   3.3262840   7.9089180  57.0415940   2.6501990   6.9300020
  59.0257200   7.9268130  12.1913310  58.9826830   7.5561040  13.0727770
  59.1568210   8.8645700  12.3315130  62.7263230   9.4827720   7.7923030
  62.4854590   9.7502280   6.9053550  63.6665870   9.6533450   7.8473890
  58.8645230  10.8730380   9.3111090  58.2705550  10.7415080  10.0501130
  58.8569070  10.0368520   8.8453190  71.6706840  12.1445520   5.8720410
  71.2109810  12.8961330   5.4978430  71.0419300  11.4251990   5.8135210
  58.4957460   8.2388760   8.2619130  57.7691520   7.6194050   8.1945080
  58.5566610   8.6329370   7.3917210  62.1002560  10.4533760   5.0468540
  62.6167580   9.8421120   4.5216800  62.7499940  10.9562540   5.5379550
  64.8398060  11.3442250   5.8737520  65.1275870  11.0896550   4.9970530
  65.3521280  10.7919610   6.4643090  64.9070420  12.2658350  13.2405720
  65.8337730  12.0302620  13.2841680  64.8920850  13.0930350  12.7591750
  48.8264150  77.4623110  59.0436770  48.7458200  76.5477720  58.7728480
  48.4128570  77.9590180  58.3376480  46.9582190  79.2402130  60.9246040
  46.1824290  78.7602570  61.2144610  47.6095120  78.5607780  60.7502200
  40.9748020  79.5521940  61.8021800  40.1432900  79.2970650  62.2018310
  41.5829000  79.6232710  62.5379720  39.3839970  74.5123830  55.5864190
  38.4956670  74.8539800  55.4844070  39.6681160  74.3124150  54.6945020
  37.3472980  77.1129480  61.4703890  37.9189090  76.3451680  61.4707530
  37.3474520  77.4118240  60.5610500  47.4296350  74.7229700  61.1585130
  47.8061170  73.8501580  61.0458800  47.3315860  75.0588400  60.2675570
  41.5601360  73.0955330  56.6202570  41.6668110  73.9959060  56.9271330
  40.6493720  73.0473300  56.3297220  51.2120470  72.2180140  58.0913470
  52.0330090  71.7276710  58.1338950  51.2454550  72.8077800  58.8445310
  39.2084520  75.0174340  61.8655160  39.8894630  75.2812710  62.4842560
  38.8932570  74.1775210  62.1993170  43.4009090  76.0641700  60.9527750
  43.9087310  76.5622670  61.5932770  43.9322330  75.2876900  60.7767110
  51.4481950  74.1580520  60.8641010  50.7437520  74.4465410  61.4444120
  51.8094110  74.9680630  60.5040570  54.5168870  73.6035310  61.2550220
  53.5693780  73.6374290  61.3865650  54.8418860  74.4174260  61.6399580
  45.0488410  69.9032490  59.5506210  45.3563390  69.3479380  58.8341710
  44.1189110  70.0376950  59.3679200  47.4369170  77.9681320  56.2866330
  46.5098450  77.9018700  56.5154800  47.5893990  78.9061450  56.1721570
  47.4238250  74.2398320  53.2833490  46.4841920  74.4012280  53.3685950
  47.7421510  74.9584000  52.7369480  53.9451010  78.9216840  63.2612520
  53.1169640  78.9909930  62.7862650  54.5401490  79.5071150  62.7928350
  51.4666460  79.5301620  56.7901580  50.8478880  79.1921170  56.1427880
  51.4490910  78.8861380  57.4980770  43.0425810  78.4946060  59.0686060
  42.6382810  77.7823310  58.5731960  43.1288930  78.1499300  59.9574100
  49.6431160  78.7688430  53.7974330  50.0824440  77.9310860  53.6512150
  50.3559580  79.4017830  53.8838470  53.2248300  70.0231240  52.1115370
  52.9120960  70.1158070  53.0114440  53.9860770  70.6012270  52.0612800
  39.7430440  77.3891040  56.5692710  39.6228040  78.1153130  55.9573980
  39.4331330  76.6193950  56.0920620  42.2094100  70.7326110  59.9516380
  41.7662250  71.5135650  59.6200900  42.7679090  71.0556000  60.6587320
  45.3252920  70.3536810  54.8322210  44.7007100  70.3496680  55.5575520
  45.2383040  69.4867770  54.4358180  44.2470000  71.2773440  61.8105980
  44.5442330  72.1836270  61.7298000  44.7955560  70.7892220  61.1965550
  42.0008320  75.8559680  57.6797630  41.7749240  75.6396850  58.5844250
  41.2200850  76.2888140  57.3343600  49.2306080  75.8623050  56.2788280
  48.6314970  76.5858850  56.0951900  49.7785690  75.7999830  55.4964730
  47.8370950  74.4986590  58.3091560  48.2300520  74.8158790  57.4960250
  48.1987800  73.6198470  58.4236080  36.8735120  71.0887390  60.5321760
  36.5848170  71.6590250  61.2446740  37.6180880  70.6091840  60.8952990
  37.0605350  75.0307510  51.7424480  36.9780020  75.9738270  51.8839470
  36.7088410  74.8882420  50.8636830  48.4226090  77.0892340  62.4042340
  47.6907210  77.5979150  62.7532440  48.0250430  76.2722320  62.1031120
  44.8603480  73.7646540  60.8094830  44.8639540  73.3236490  59.9599370
  45.7554600  74.0863870  60.9166650  40.7105860  73.6473030  59.7689040
  40.3705910  74.1248260  60.5256090  39.9483180  73.1938150  59.4090140
  44.9223630  74.7658620  53.8001590  45.0436450  74.7245100  54.7487410
  44.5372140  75.6282770  53.6448320  48.8852000  72.5426020  61.8165280
  48.9024740  72.9934670  62.6607130  48.6367580  71.6431660  62.0298720
  43.9345130  77.0759760  53.1984890  43.3662030  76.6278010  52.5720800
  44.6434130  77.4352540  52.6650040  38.0251940  72.5692010  58.6853710
  37.7398860  72.2047680  59.5232330  37.9630800  71.8372470  58.0716850
  47.6990530  71.4621270  55.4067080  46.8855140  70.9634440  55.3312390
  47.5052480  72.3019520  54.9903430  50.4138920  75.8340920  53.7029240
  51.3018540  76.1458150  53.5280580  50.3844010  74.9613170  53.3109820
  52.6853190  77.1452760  53.1709100  52.6016910  77.5766980  52.3205540
  53.4047380  77.6051110  53.6035920  37.5182600  77.7050960  52.6450410
  38.3877450  77.9875760  52.9286330  37.0272920  78.5186830  52.5299220
  44.6817410  79.0924170  56.7658690  45.1380190  79.9029420  56.9918880
  44.3305620  78.7747310  57.5977180  40.5829190  69.4361820  57.2381210
  40.4543820  69.4279720  58.1866130  39.7591210  69.7744910  56.8872220
  52.4423930  72.6432190  55.2576920  51.8137090  72.7477860  54.5435150
  51.9475850  72.8628970  56.0470800  44.4107960  74.9218140  56.6734800
  43.7024110  75.3904480  57.1148410  44.6952440  74.2640150  57.3079990
  48.4423390  71.6468800  58.1130590  48.3191170  71.6654930  57.1640100
  49.3907950  71.6947740  58.2328990  42.6142980  73.2303220  54.0485510
  43.4633510  73.6673370  53.9825700  42.2474250  73.5423480  54.8757570
  51.5352760  77.8015980  58.9617080  50.5942900  77.8166210  59.1364770
  51.8496830  77.0151940  59.4077380  41.5134400  79.4835580  52.5221040
  42.2797670  79.3716940  53.0846470  41.5909090  78.7873550  51.8697810
  40.2081160  76.9160650  53.2053930  40.2884750  75.9688160  53.3171330
  41.1000910  77.2467530  53.3114590  43.5453430  79.4800710  54.4963680
  43.9669850  79.3140580  55.3395070  43.6704270  78.6700940  54.0018820
  46.0581070  78.5038320  51.7440780  46.5786730  77.7887340  51.3781930
  46.7049470  79.1424190  52.0441290  42.4412330  75.5533940  51.4421840
  42.2401390  74.6901300  51.8035180  42.2704380  75.4667300  50.5043440
  49.9200640  70.3642170  53.9708720  50.2002930  69.5210070  54.3268140
  49.1466370  70.5965280  54.4847470  41.2395130  72.6534560  51.4299720
  41.5421030  72.6601990  50.5218870  41.9789720  72.3032420  51.9267380
  44.4580060  71.5969180  52.4155920  44.1102060  70.9193170  51.8358370
  44.6592830  71.1358690  53.2299310  37.7985700  78.1256830  58.8120290
  37.1434540  77.8568470  58.1679990  38.6363650  78.0161310  58.3622270
  50.7476140  72.9198120  53.0338780  51.1661020  72.7329100  52.1935440
  50.4412200  72.0677170  53.3441710  54.2465870  77.8322260  56.7314580
  53.8709470  77.0650190  56.2995870  53.5168990  78.2144960  57.2189510
  37.0123780  75.3355760  54.7545620  36.1087860  75.5985960  54.5797280
  37.4964400  75.6066930  53.9745580  53.5216830  76.0579750  60.0321820
  54.0454310  75.5642400  59.4011990  54.1076250  76.1930110  60.7769390
  39.5550990  74.3921300  52.6640000  40.2642690  73.9704520  52.1787280
  38.8390930  74.4596530  52.0323350  39.2025150  70.4460630  51.7042650
  39.9253280  70.9869570  52.0223870  39.4749670  70.1724050  50.8284190
  53.0116800  75.3153100  55.9714230  53.5075920  75.0823970  56.7563110
  52.8132870  74.4764940  55.5551870  38.8917340  69.6966820  61.6065270
  39.5393530  69.1464200  61.1660430  39.3119180  69.9509970  62.4281080
  54.4403960  73.9514050  58.5051910  54.3303240  73.7970090  59.4434180
  55.2011550  73.4234990  58.2627320  55.3294230  71.7821970  51.7458050
  56.2543540  71.6503150  51.5376340  55.3070020  71.8614790  52.6994500
  55.4032720  72.5532630  54.3714760  54.6084220  72.4877750  54.9007670
  55.6076000  73.4883270  54.3600110  47.2831580  70.1806410  62.7764500
  46.5003370  70.6551910  63.0561260  46.9894510  69.2761240  62.6677680
  51.8352650  70.8829510  60.8213590  52.2760740  70.8274610  59.9735190
  51.5660240  71.7987520  60.8923770  53.6991220  70.5144750  58.8322410
  53.6379620  69.5705970  58.6853430  54.4783250  70.6224840  59.3775870
  38.6271990  70.4853890  55.2978220  39.3851350  70.5982770  54.7242250
  38.1649160  71.3223090  55.2521650  45.1685800  72.5993160  58.2880530
  44.3560310  72.2250050  57.9476410  45.6727440  71.8438240  58.5901720
  49.6710780  69.2635610  59.5263600  50.2740150  69.8355820  60.0012120
  48.9303770  69.8275050  59.3037500  52.8145380  69.6657170  54.8003880
  53.0096010  70.5640620  55.0671310  52.0275250  69.4344250  55.2936830
  40.9997140  71.0117940  53.8380190  41.5289900  70.2247740  53.7088140
  41.6325460  71.6909130  54.0715720  43.1934980  70.7493080  56.8925580
  42.5637720  70.0480390  57.0595710  42.6540120  71.5097210  56.6758740
  48.8264150  77.4623110  40.2693280  48.7458200  76.5477720  39.9984990
  48.4128570  77.9590180  39.5632990  46.9582190  79.2402130  42.1502550
  46.1824290  78.7602570  42.4401120  47.6095120  78.5607780  41.9758710
  40.9748020  79.5521940  43.0278310  40.1432900  79.2970650  43.4274820
  41.5829000  79.6232710  43.7636230  39.3839970  74.5123830  36.8120700
  38.4956670  74.8539800  36.7100580  39.6681160  74.3124150  35.9201530
  37.3472980  77.1129480  42.6960400  37.9189090  76.3451680  42.6964040
  37.3474520  77.4118240  41.7867010  38.5897850  72.5213840  44.4829330
  38.4100690  71.6239590  44.7632090  38.1877930  73.0685710  45.1576280
  47.4296350  74.7229700  42.3841640  47.8061170  73.8501580  42.2715310
  47.3315860  75.0588400  41.4932080  41.5601360  73.0955330  37.8459080
  41.6668110  73.9959060  38.1527840  40.6493720  73.0473300  37.5553730
  51.2120470  72.2180140  39.3169980  52.0330090  71.7276710  39.3595460
  51.2454550  72.8077800  40.0701820  39.2084520  75.0174340  43.0911670
  39.8894630  75.2812710  43.7099070  38.8932570  74.1775210  43.4249680
  43.4009090  76.0641700  42.1784260  43.9087310  76.5622670  42.8189280
  43.9322330  75.2876900  42.0023620  55.5020020  74.2346890  45.8813610
  54.7972190  74.6228600  45.3628720  55.7677940  74.9297180  46.4834540
  41.6845190  70.7040260  46.4447680  41.6863630  71.2212650  45.6393580
  40.8549500  70.2270440  46.4217610  51.4481950  74.1580520  42.0897520
  50.7437520  74.4465410  42.6700630  51.8094110  74.9680630  41.7297080
  41.3660520  72.4150220  44.4518130  41.7077330  73.2592270  44.1572000
  40.4276330  72.5633960  44.5683470  54.5168870  73.6035310  42.4806730
  53.5693780  73.6374290  42.6122160  54.8418860  74.4174260  42.8656090
  45.0488410  69.9032490  40.7762720  45.3563390  69.3479380  40.0598220
  44.1189110  70.0376950  40.5935710  47.4369170  77.9681320  37.5122840
  46.5098450  77.9018700  37.7411310  47.5893990  78.9061450  37.3978080
  47.4238250  74.2398320  34.5090000  46.4841920  74.4012280  34.5942460
  47.7421510  74.9584000  33.9625990  53.9451010  78.9216840  44.4869030
  53.1169640  78.9909930  44.0119160  54.5401490  79.5071150  44.0184860
  51.4666460  79.5301620  38.0158090  50.8478880  79.1921170  37.3684390
  51.4490910  78.8861380  38.7237280  50.9093020  75.7086160  45.4323900
  50.4964200  76.5339870  45.6863890  50.1768970  75.1231200  45.2400260
  43.0425810  78.4946060  40.2942570  42.6382810  77.7823310  39.7988470
  43.1288930  78.1499300  41.1830610  41.7554430  75.2689270  44.0741610
  42.3069020  75.3784610  43.2994860  42.2697940  75.6426870  44.7896840
  49.6431160  78.7688430  35.0230840  50.0824440  77.9310860  34.8768660
  50.3559580  79.4017830  35.1094980  41.4297160  78.7908630  47.6846950
  41.2904930  79.6631430  48.0534350  40.5478520  78.4481440  47.5394890
  53.2248300  70.0231240  33.3371880  52.9120960  70.1158070  34.2370950
  53.9860770  70.6012270  33.2869310  39.7430440  77.3891040  37.7949220
  39.6228040  78.1153130  37.1830490  39.4331330  76.6193950  37.3177130
  54.4349590  74.7602740  49.3146020  53.8193860  75.2682410  48.7861480
  54.1146010  73.8601070  49.2571960  42.2094100  70.7326110  41.1772890
  41.7662250  71.5135650  40.8457410  42.7679090  71.0556000  41.8843830
  46.4963910  73.5994630  46.7808210  46.0343280  73.8077650  47.5928150
  46.0942020  72.7853980  46.4778880  51.4968420  74.8203580  47.9104870
  50.6462010  74.5209330  48.2313940  51.3370210  75.0645590  46.9988690
  48.5918130  76.3205330  50.0103660  48.9171540  75.4869080  49.6705890
  49.3798460  76.8433850  50.1581990  45.3252920  70.3536810  36.0578720
  44.7007100  70.3496680  36.7832030  45.2383040  69.4867770  35.6614690
  44.2470000  71.2773440  43.0362490  44.5442330  72.1836270  42.9554510
  44.7955560  70.7892220  42.4222060  42.0008320  75.8559680  38.9054140
  41.7749240  75.6396850  39.8100760  41.2200850  76.2888140  38.5600110
  49.2306080  75.8623050  37.5044790  48.6314970  76.5858850  37.3208410
  49.7785690  75.7999830  36.7221240  44.4407530  76.7545260  49.5714410
  44.3451130  75.8139990  49.4214810  45.2839510  76.9760330  49.1762480
  47.8370950  74.4986590  39.5348070  48.2300520  74.8158790  38.7216760
  48.1987800  73.6198470  39.6492590  39.5718070  73.1658930  47.7248190
  39.1781460  74.0134140  47.9320970  38.8836470  72.5285300  47.9156830
  46.1463120  73.2493900  50.7944930  45.4561440  73.0566100  51.4291020
  46.8895420  73.5328540  51.3269230  36.8735120  71.0887390  41.7578270
  36.5848170  71.6590250  42.4703250  37.6180880  70.6091840  42.1209500
  37.0605350  75.0307510  32.9680990  36.9780020  75.9738270  33.1095980
  36.7088410  74.8882420  32.0893340  48.4226090  77.0892340  43.6298850
  47.6907210  77.5979150  43.9788950  48.0250430  76.2722320  43.3287630
  44.8603480  73.7646540  42.0351340  44.8639540  73.3236490  41.1855880
  45.7554600  74.0863870  42.1423160  40.7105860  73.6473030  40.9945550
  40.3705910  74.1248260  41.7512600  39.9483180  73.1938150  40.6346650
  44.9223630  74.7658620  35.0258100  45.0436450  74.7245100  35.9743920
  44.5372140  75.6282770  34.8704830  48.8852000  72.5426020  43.0421790
  48.9024740  72.9934670  43.8863640  48.6367580  71.6431660  43.2555230
  43.9345130  77.0759760  34.4241400  43.3662030  76.6278010  33.7977310
  44.6434130  77.4352540  33.8906550  52.3122750  69.9558200  48.8808170
  52.6368520  69.2247860  49.4066150  52.3479260  69.6371840  47.9789160
  45.1611450  77.8248320  43.7816750  45.5281580  77.3506890  44.5278090
  44.9716510  78.6989890  44.1225090  38.0251940  72.5692010  39.9110220
  37.7398860  72.2047680  40.7488840  37.9630800  71.8372470  39.2973360
  42.9510820  76.8656960  46.1000960  42.6467890  77.7448940  46.3251320
  43.9057280  76.9256750  46.1358400  47.6990530  71.4621270  36.6323590
  46.8855140  70.9634440  36.5568900  47.5052480  72.3019520  36.2159940
  50.4138920  75.8340920  34.9285750  51.3018540  76.1458150  34.7537090
  50.3844010  74.9613170  34.5366330  39.0074550  77.7059700  47.2472320
  38.6489490  78.3713550  47.8345660  38.7129110  76.8743250  47.6184940
  42.2087670  78.1643940  50.1311870  41.9087810  78.3101120  49.2339690
  42.9798910  77.6049230  50.0385260  52.6853190  77.1452760  34.3965610
  52.6016910  77.5766980  33.5462050  53.4047380  77.6051110  34.8292430
  37.5182600  77.7050960  33.8706920  38.3877450  77.9875760  34.1542840
  37.0272920  78.5186830  33.7555730  44.6817410  79.0924170  37.9915200
  45.1380190  79.9029420  38.2175390  44.3305620  78.7747310  38.8233690
  40.5829190  69.4361820  38.4637720  40.4543820  69.4279720  39.4122640
  39.7591210  69.7744910  38.1128730  37.5823120  71.1952940  47.9244420
  36.8681640  71.3949860  48.5297030  38.0018160  70.4192510  48.2959220
  49.0761900  73.6875250  45.6745870  49.4442720  72.8670460  46.0025440
  48.2160100  73.7477140  46.0901520  52.4423930  72.6432190  36.4833430
  51.8137090  72.7477860  35.7691660  51.9475850  72.8628970  37.2727310
  44.4107960  74.9218140  37.8991310  43.7024110  75.3904480  38.3404920
  44.6952440  74.2640150  38.5336500  46.0363890  76.3414840  45.8983840
  46.5349140  76.8160660  46.5635690  46.1786840  75.4178360  46.1053870
  48.4423390  71.6468800  39.3387100  48.3191170  71.6654930  38.3896610
  49.3907950  71.6947740  39.4585500  42.6142980  73.2303220  35.2742020
  43.4633510  73.6673370  35.2082210  42.2474250  73.5423480  36.1014080
  53.2430750  72.5582800  46.7412230  52.7404350  73.2988200  47.0806040
  54.0587410  72.9466800  46.4249020  51.5352760  77.8015980  40.1873590
  50.5942900  77.8166210  40.3621280  51.8496830  77.0151940  40.6333890
  41.5134400  79.4835580  33.7477550  42.2797670  79.3716940  34.3102980
  41.5909090  78.7873550  33.0954320  40.2081160  76.9160650  34.4310440
  40.2884750  75.9688160  34.5427840  41.1000910  77.2467530  34.5371100
  37.7351960  78.7375570  49.6666610  38.2390980  78.1582850  50.2382840
  36.9959380  79.0215800  50.2042980  39.7675040  76.8805160  50.5616680
  39.8080380  76.5819030  51.4701910  40.6220540  77.2812770  50.4024200
  43.5453430  79.4800710  35.7220190  43.9669850  79.3140580  36.5651580
  43.6704270  78.6700940  35.2275330  41.7080850  75.4597260  48.5291170
  41.1777310  74.9688210  47.9014510  42.3768920  75.8881460  47.9949100
  46.0581070  78.5038320  32.9697290  46.5786730  77.7887340  32.6038440
  46.7049470  79.1424190  33.2697800  51.0781080  77.2662880  50.2971510
  51.6601850  76.5115200  50.2091990  51.2542850  77.7970320  49.5202990
  42.1953150  72.4259630  48.6088460  42.1010020  71.8080380  47.8839330
  41.6150540  73.1525920  48.3818370  44.9614590  70.9832870  45.6415850
  44.5131890  71.0057130  44.7961400  44.3279790  70.5851890  46.2386150
  47.7038040  77.6103380  47.6466130  47.8234250  77.0144520  48.3860970
  48.5632040  77.6473070  47.2267430  50.0425940  78.1640570  46.2228640
  49.5161160  78.6883190  45.6193780  50.3857280  78.7967960  46.8538370
  42.4412330  75.5533940  32.6678350  42.2401390  74.6901300  33.0291690
  42.2704380  75.4667300  31.7299950  44.4706810  74.1524730  48.9041950
  45.0606500  73.8440580  49.5919770  43.6527050  73.6804480  49.0601850
  49.2900240  73.7690540  49.1374970  48.6015760  73.1072080  49.0724960
  50.0106260  73.3228810  49.5823430  49.9200640  70.3642170  35.1965230
  50.2002930  69.5210070  35.5524650  49.1466370  70.5965280  35.7103980
  41.2395130  72.6534560  32.6556230  41.5421030  72.6601990  31.7475380
  41.9789720  72.3032420  33.1523890  44.4580060  71.5969180  33.6412430
  44.1102060  70.9193170  33.0614880  44.6592830  71.1358690  34.4555820
  37.7985700  78.1256830  40.0376800  37.1434540  77.8568470  39.3936500
  38.6363650  78.0161310  39.5878780  50.7476140  72.9198120  34.2595290
  51.1661020  72.7329100  33.4191950  50.4412200  72.0677170  34.5698220
  54.2465870  77.8322260  37.9571090  53.8709470  77.0650190  37.5252380
  53.5168990  78.2144960  38.4446020  38.8361630  78.5109400  44.5780140
  39.2034670  78.4236800  45.4576160  38.2672450  77.7475950  44.4787000
  53.6365490  76.9793780  47.5910610  53.4051580  76.7506530  46.6908560
  53.8970040  77.8993330  47.5455500  38.3877630  75.4218490  48.4838560
  37.4933680  75.3885250  48.8232270  38.9275180  75.6205280  49.2489810
  52.0753560  72.2050210  50.3690310  52.9523740  72.2133610  50.7524310
  52.0874400  71.4681050  49.7582660  37.0123780  75.3355760  35.9802130
  36.1087860  75.5985960  35.8053790  37.4964400  75.6066930  35.2002090
  53.5216830  76.0579750  41.2578330  54.0454310  75.5642400  40.6268500
  54.1076250  76.1930110  42.0025900  53.7006550  76.1419620  44.7797880
  52.7509260  76.1083160  44.8942870  53.8819560  77.0519730  44.5447650
  39.5550990  74.3921300  33.8896510  40.2642690  73.9704520  33.4043790
  38.8390930  74.4596530  33.2579860  53.0116800  75.3153100  37.1970740
  53.5075920  75.0823970  37.9819620  52.8132870  74.4764940  36.7808380
  38.8917340  69.6966820  42.8321780  39.5393530  69.1464200  42.3916940
  39.3119180  69.9509970  43.6537590  54.4403960  73.9514050  39.7308420
  54.3303240  73.7970090  40.6690690  55.2011550  73.4234990  39.4883830
  52.7869680  69.8908180  46.1891420  53.4241900  70.5042320  46.5550610
  52.9344570  69.9268840  45.2440650  55.3294230  71.7821970  32.9714560
  56.2543540  71.6503150  32.7632850  55.3070020  71.8614790  33.9251010
  55.4032720  72.5532630  35.5971270  54.6084220  72.4877750  36.1264180
  55.6076000  73.4883270  35.5856620  38.6449340  69.8522490  45.5747100
  38.2964160  70.3086310  46.3405280  38.3137040  68.9579620  45.6569530
  46.1574160  71.0434370  49.0966520  46.0963050  71.6356200  49.8461930
  47.0974540  70.9360330  48.9516780  48.7948720  70.7004430  48.7358810
  49.4089130  71.0183720  48.0739890  49.3398280  70.2153020  49.3554670
  39.3169980  69.3798690  48.8497870  39.8652970  69.1986740  48.0863980
  39.3825290  68.5892800  49.3854180  49.5356760  69.2636570  45.0628100
  48.6616600  69.5971680  44.8601030  49.4267510  68.7909750  45.8879970
  50.4428740  71.4707440  46.4469820  50.1142100  70.6559200  46.0671550
  51.3911040  71.4277250  46.3235510  47.2831580  70.1806410  44.0021010
  46.5003370  70.6551910  44.2817770  46.9894510  69.2761240  43.8934190
  51.8352650  70.8829510  42.0470100  52.2760740  70.8274610  41.1991700
  51.5660240  71.7987520  42.1180280  53.6991220  70.5144750  40.0578920
  53.6379620  69.5705970  39.9109940  54.4783250  70.6224840  40.6032380
  38.6271990  70.4853890  36.5234730  39.3851350  70.5982770  35.9498760
  38.1649160  71.3223090  36.4778160  45.1685800  72.5993160  39.5137040
  44.3560310  72.2250050  39.1732920  45.6727440  71.8438240  39.8158230
  49.6710780  69.2635610  40.7520110  50.2740150  69.8355820  41.2268630
  48.9303770  69.8275050  40.5294010  52.8145380  69.6657170  36.0260390
  53.0096010  70.5640620  36.2927820  52.0275250  69.4344250  36.5193340
  43.1934980  70.7493080  38.1182090  42.5637720  70.0480390  38.2852220
  42.6540120  71.5097210  37.9015250  43.3190540  70.0277060  50.5534580
  43.0374810  70.5310660  49.7895400  43.7010240  69.2298810  50.1876710
  49.9206000  69.4430640  51.1315050  49.8071450  69.7625250  52.0266570
  50.7375740  69.8443150  50.8352330  48.8264150  77.4623110  21.4949790
  48.7458200  76.5477720  21.2241500  48.4128570  77.9590180  20.7889500
  46.9582190  79.2402130  23.3759060  46.1824290  78.7602570  23.6657630
  47.6095120  78.5607780  23.2015220  40.9748020  79.5521940  24.2534820
  40.1432900  79.2970650  24.6531330  41.5829000  79.6232710  24.9892740
  39.3839970  74.5123830  18.0377210  38.4956670  74.8539800  17.9357090
  39.6681160  74.3124150  17.1458040  37.3472980  77.1129480  23.9216910
  37.9189090  76.3451680  23.9220550  37.3474520  77.4118240  23.0123520
  38.5897850  72.5213840  25.7085840  38.4100690  71.6239590  25.9888600
  38.1877930  73.0685710  26.3832790  47.4296350  74.7229700  23.6098150
  47.8061170  73.8501580  23.4971820  47.3315860  75.0588400  22.7188590
  41.5601360  73.0955330  19.0715590  41.6668110  73.9959060  19.3784350
  40.6493720  73.0473300  18.7810240  51.2120470  72.2180140  20.5426490
  52.0330090  71.7276710  20.5851970  51.2454550  72.8077800  21.2958330
  39.2084520  75.0174340  24.3168180  39.8894630  75.2812710  24.9355580
  38.8932570  74.1775210  24.6506190  43.4009090  76.0641700  23.4040770
  43.9087310  76.5622670  24.0445790  43.9322330  75.2876900  23.2280130
  55.5020020  74.2346890  27.1070120  54.7972190  74.6228600  26.5885230
  55.7677940  74.9297180  27.7091050  41.6845190  70.7040260  27.6704190
  41.6863630  71.2212650  26.8650090  40.8549500  70.2270440  27.6474120
  51.4481950  74.1580520  23.3154030  50.7437520  74.4465410  23.8957140
  51.8094110  74.9680630  22.9553590  41.3660520  72.4150220  25.6774640
  41.7077330  73.2592270  25.3828510  40.4276330  72.5633960  25.7939980
  54.5168870  73.6035310  23.7063240  53.5693780  73.6374290  23.8378670
  54.8418860  74.4174260  24.0912600  45.0488410  69.9032490  22.0019230
  45.3563390  69.3479380  21.2854730  44.1189110  70.0376950  21.8192220
  47.4369170  77.9681320  18.7379350  46.5098450  77.9018700  18.9667820
  47.5893990  78.9061450  18.6234590  47.4238250  74.2398320  15.7346510
  46.4841920  74.4012280  15.8198970  47.7421510  74.9584000  15.1882500
  53.9451010  78.9216840  25.7125540  53.1169640  78.9909930  25.2375670
  54.5401490  79.5071150  25.2441370  51.4666460  79.5301620  19.2414600
  50.8478880  79.1921170  18.5940900  51.4490910  78.8861380  19.9493790
  50.9093020  75.7086160  26.6580410  50.4964200  76.5339870  26.9120400
  50.1768970  75.1231200  26.4656770  43.0425810  78.4946060  21.5199080
  42.6382810  77.7823310  21.0244980  43.1288930  78.1499300  22.4087120
  41.7554430  75.2689270  25.2998120  42.3069020  75.3784610  24.5251370
  42.2697940  75.6426870  26.0153350  49.6431160  78.7688430  16.2487350
  50.0824440  77.9310860  16.1025170  50.3559580  79.4017830  16.3351490
  41.4297160  78.7908630  28.9103460  41.2904930  79.6631430  29.2790860
  40.5478520  78.4481440  28.7651400  53.2248300  70.0231240  14.5628390
  52.9120960  70.1158070  15.4627460  53.9860770  70.6012270  14.5125820
  39.7430440  77.3891040  19.0205730  39.6228040  78.1153130  18.4087000
  39.4331330  76.6193950  18.5433640  54.4349590  74.7602740  30.5402530
  53.8193860  75.2682410  30.0117990  54.1146010  73.8601070  30.4828470
  42.2094100  70.7326110  22.4029400  41.7662250  71.5135650  22.0713920
  42.7679090  71.0556000  23.1100340  46.4963910  73.5994630  28.0064720
  46.0343280  73.8077650  28.8184660  46.0942020  72.7853980  27.7035390
  51.4968420  74.8203580  29.1361380  50.6462010  74.5209330  29.4570450
  51.3370210  75.0645590  28.2245200  48.5918130  76.3205330  31.2360170
  48.9171540  75.4869080  30.8962400  49.3798460  76.8433850  31.3838500
  45.3252920  70.3536810  17.2835230  44.7007100  70.3496680  18.0088540
  45.2383040  69.4867770  16.8871200  44.2470000  71.2773440  24.2619000
  44.5442330  72.1836270  24.1811020  44.7955560  70.7892220  23.6478570
  42.0008320  75.8559680  20.1310650  41.7749240  75.6396850  21.0357270
  41.2200850  76.2888140  19.7856620  49.2306080  75.8623050  18.7301300
  48.6314970  76.5858850  18.5464920  49.7785690  75.7999830  17.9477750
  44.4407530  76.7545260  30.7970920  44.3451130  75.8139990  30.6471320
  45.2839510  76.9760330  30.4018990  47.8370950  74.4986590  20.7604580
  48.2300520  74.8158790  19.9473270  48.1987800  73.6198470  20.8749100
  39.5718070  73.1658930  28.9504700  39.1781460  74.0134140  29.1577480
  38.8836470  72.5285300  29.1413340  46.1463120  73.2493900  32.0201440
  45.4561440  73.0566100  32.6547530  46.8895420  73.5328540  32.5525740
  36.8735120  71.0887390  22.9834780  36.5848170  71.6590250  23.6959760
  37.6180880  70.6091840  23.3466010  37.0605350  75.0307510  14.1937500
  36.9780020  75.9738270  14.3352490  36.7088410  74.8882420  13.3149850
  48.4226090  77.0892340  24.8555360  47.6907210  77.5979150  25.2045460
  48.0250430  76.2722320  24.5544140  44.8603480  73.7646540  23.2607850
  44.8639540  73.3236490  22.4112390  45.7554600  74.0863870  23.3679670
  40.7105860  73.6473030  22.2202060  40.3705910  74.1248260  22.9769110
  39.9483180  73.1938150  21.8603160  44.9223630  74.7658620  16.2514610
  45.0436450  74.7245100  17.2000430  44.5372140  75.6282770  16.0961340
  48.8852000  72.5426020  24.2678300  48.9024740  72.9934670  25.1120150
  48.6367580  71.6431660  24.4811740  43.9345130  77.0759760  15.6497910
  43.3662030  76.6278010  15.0233820  44.6434130  77.4352540  15.1163060
  52.3122750  69.9558200  30.1064680  52.6368520  69.2247860  30.6322660
  52.3479260  69.6371840  29.2045670  45.1611450  77.8248320  25.0073260
  45.5281580  77.3506890  25.7534600  44.9716510  78.6989890  25.3481600
  38.0251940  72.5692010  21.1366730  37.7398860  72.2047680  21.9745350
  37.9630800  71.8372470  20.5229870  42.9510820  76.8656960  27.3257470
  42.6467890  77.7448940  27.5507830  43.9057280  76.9256750  27.3614910
  47.6990530  71.4621270  17.8580100  46.8855140  70.9634440  17.7825410
  47.5052480  72.3019520  17.4416450  50.4138920  75.8340920  16.1542260
  51.3018540  76.1458150  15.9793600  50.3844010  74.9613170  15.7622840
  39.0074550  77.7059700  28.4728830  38.6489490  78.3713550  29.0602170
  38.7129110  76.8743250  28.8441450  42.2087670  78.1643940  31.3568380
  41.9087810  78.3101120  30.4596200  42.9798910  77.6049230  31.2641770
  52.6853190  77.1452760  15.6222120  52.6016910  77.5766980  14.7718560
  53.4047380  77.6051110  16.0548940  37.5182600  77.7050960  15.0963430
  38.3877450  77.9875760  15.3799350  37.0272920  78.5186830  14.9812240
  44.6817410  79.0924170  19.2171710  45.1380190  79.9029420  19.4431900
  44.3305620  78.7747310  20.0490200  40.5829190  69.4361820  19.6894230
  40.4543820  69.4279720  20.6379150  39.7591210  69.7744910  19.3385240
  37.5823120  71.1952940  29.1500930  36.8681640  71.3949860  29.7553540
  38.0018160  70.4192510  29.5215730  49.0761900  73.6875250  26.9002380
  49.4442720  72.8670460  27.2281950  48.2160100  73.7477140  27.3158030
  52.4423930  72.6432190  17.7089940  51.8137090  72.7477860  16.9948170
  51.9475850  72.8628970  18.4983820  44.4107960  74.9218140  19.1247820
  43.7024110  75.3904480  19.5661430  44.6952440  74.2640150  19.7593010
  46.0363890  76.3414840  27.1240350  46.5349140  76.8160660  27.7892200
  46.1786840  75.4178360  27.3310380  48.4423390  71.6468800  20.5643610
  48.3191170  71.6654930  19.6153120  49.3907950  71.6947740  20.6842010
  42.6142980  73.2303220  16.4998530  43.4633510  73.6673370  16.4338720
  42.2474250  73.5423480  17.3270590  53.2430750  72.5582800  27.9668740
  52.7404350  73.2988200  28.3062550  54.0587410  72.9466800  27.6505530
  51.5352760  77.8015980  21.4130100  50.5942900  77.8166210  21.5877790
  51.8496830  77.0151940  21.8590400  41.5134400  79.4835580  14.9734060
  42.2797670  79.3716940  15.5359490  41.5909090  78.7873550  14.3210830
  40.2081160  76.9160650  15.6566950  40.2884750  75.9688160  15.7684350
  41.1000910  77.2467530  15.7627610  37.7351960  78.7375570  30.8923120
  38.2390980  78.1582850  31.4639350  36.9959380  79.0215800  31.4299490
  39.7675040  76.8805160  31.7873190  39.8080380  76.5819030  32.6958420
  40.6220540  77.2812770  31.6280710  43.5453430  79.4800710  16.9476700
  43.9669850  79.3140580  17.7908090  43.6704270  78.6700940  16.4531840
  41.7080850  75.4597260  29.7547680  41.1777310  74.9688210  29.1271020
  42.3768920  75.8881460  29.2205610  46.0581070  78.5038320  14.1953800
  46.5786730  77.7887340  13.8294950  46.7049470  79.1424190  14.4954310
  51.0781080  77.2662880  31.5228020  51.6601850  76.5115200  31.4348500
  51.2542850  77.7970320  30.7459500  42.1953150  72.4259630  29.8344970
  42.1010020  71.8080380  29.1095840  41.6150540  73.1525920  29.6074880
  44.9614590  70.9832870  26.8672360  44.5131890  71.0057130  26.0217910
  44.3279790  70.5851890  27.4642660  47.7038040  77.6103380  28.8722640
  47.8234250  77.0144520  29.6117480  48.5632040  77.6473070  28.4523940
  50.0425940  78.1640570  27.4485150  49.5161160  78.6883190  26.8450290
  50.3857280  78.7967960  28.0794880  42.4412330  75.5533940  13.8934860
  42.2401390  74.6901300  14.2548200  42.2704380  75.4667300  12.9556460
  44.4706810  74.1524730  30.1298460  45.0606500  73.8440580  30.8176280
  43.6527050  73.6804480  30.2858360  49.2900240  73.7690540  30.3631480
  48.6015760  73.1072080  30.2981470  50.0106260  73.3228810  30.8079940
  49.9200640  70.3642170  16.4221740  50.2002930  69.5210070  16.7781160
  49.1466370  70.5965280  16.9360490  41.2395130  72.6534560  13.8812740
  41.5421030  72.6601990  12.9731890  41.9789720  72.3032420  14.3780400
  44.4580060  71.5969180  14.8668940  44.1102060  70.9193170  14.2871390
  44.6592830  71.1358690  15.6812330  37.7985700  78.1256830  21.2633310
  37.1434540  77.8568470  20.6193010  38.6363650  78.0161310  20.8135290
  50.7476140  72.9198120  15.4851800  51.1661020  72.7329100  14.6448460
  50.4412200  72.0677170  15.7954730  54.2465870  77.8322260  19.1827600
  53.8709470  77.0650190  18.7508890  53.5168990  78.2144960  19.6702530
  38.8361630  78.5109400  25.8036650  39.2034670  78.4236800  26.6832670
  38.2672450  77.7475950  25.7043510  53.6365490  76.9793780  28.8167120
  53.4051580  76.7506530  27.9165070  53.8970040  77.8993330  28.7712010
  38.3877630  75.4218490  29.7095070  37.4933680  75.3885250  30.0488780
  38.9275180  75.6205280  30.4746320  52.0753560  72.2050210  31.5946820
  52.9523740  72.2133610  31.9780820  52.0874400  71.4681050  30.9839170
  37.0123780  75.3355760  17.2058640  36.1087860  75.5985960  17.0310300
  37.4964400  75.6066930  16.4258600  53.5216830  76.0579750  22.4834840
  54.0454310  75.5642400  21.8525010  54.1076250  76.1930110  23.2282410
  53.7006550  76.1419620  26.0054390  52.7509260  76.1083160  26.1199380
  53.8819560  77.0519730  25.7704160  39.5550990  74.3921300  15.1153020
  40.2642690  73.9704520  14.6300300  38.8390930  74.4596530  14.4836370
  39.2025150  70.4460630  14.1555670  39.9253280  70.9869570  14.4736890
  39.4749670  70.1724050  13.2797210  53.0116800  75.3153100  18.4227250
  53.5075920  75.0823970  19.2076130  52.8132870  74.4764940  18.0064890
  38.8917340  69.6966820  24.0578290  39.5393530  69.1464200  23.6173450
  39.3119180  69.9509970  24.8794100  54.4403960  73.9514050  20.9564930
  54.3303240  73.7970090  21.8947200  55.2011550  73.4234990  20.7140340
  52.7869680  69.8908180  27.4147930  53.4241900  70.5042320  27.7807120
  52.9344570  69.9268840  26.4697160  55.3294230  71.7821970  14.1971070
  56.2543540  71.6503150  13.9889360  55.3070020  71.8614790  15.1507520
  55.4032720  72.5532630  16.8227780  54.6084220  72.4877750  17.3520690
  55.6076000  73.4883270  16.8113130  38.6449340  69.8522490  26.8003610
  38.2964160  70.3086310  27.5661790  38.3137040  68.9579620  26.8826040
  46.1574160  71.0434370  30.3223030  46.0963050  71.6356200  31.0718440
  47.0974540  70.9360330  30.1773290  48.7948720  70.7004430  29.9615320
  49.4089130  71.0183720  29.2996400  49.3398280  70.2153020  30.5811180
  39.3169980  69.3798690  30.0754380  39.8652970  69.1986740  29.3120490
  39.3825290  68.5892800  30.6110690  49.5356760  69.2636570  26.2884610
  48.6616600  69.5971680  26.0857540  49.4267510  68.7909750  27.1136480
  50.4428740  71.4707440  27.6726330  50.1142100  70.6559200  27.2928060
  51.3911040  71.4277250  27.5492020  47.2831580  70.1806410  25.2277520
  46.5003370  70.6551910  25.5074280  46.9894510  69.2761240  25.1190700
  51.8352650  70.8829510  23.2726610  52.2760740  70.8274610  22.4248210
  51.5660240  71.7987520  23.3436790  53.6991220  70.5144750  21.2835430
  53.6379620  69.5705970  21.1366450  54.4783250  70.6224840  21.8288890
  38.6271990  70.4853890  17.7491240  39.3851350  70.5982770  17.1755270
  38.1649160  71.3223090  17.7034670  45.1685800  72.5993160  20.7393550
  44.3560310  72.2250050  20.3989430  45.6727440  71.8438240  21.0414740
  49.6710780  69.2635610  21.9776620  50.2740150  69.8355820  22.4525140
  48.9303770  69.8275050  21.7550520  52.8145380  69.6657170  17.2516900
  53.0096010  70.5640620  17.5184330  52.0275250  69.4344250  17.7449850
  40.9997140  71.0117940  16.2893210  41.5289900  70.2247740  16.1601160
  41.6325460  71.6909130  16.5228740  43.1934980  70.7493080  19.3438600
  42.5637720  70.0480390  19.5108730  42.6540120  71.5097210  19.1271760
  49.9206000  69.4430640  32.3571560  49.8071450  69.7625250  33.2523080
  50.7375740  69.8443150  32.0608840  48.8264150  77.4623110   2.7206300
  48.7458200  76.5477720   2.4498010  48.4128570  77.9590180   2.0146010
  46.9582190  79.2402130   4.6015570  46.1824290  78.7602570   4.8914140
  47.6095120  78.5607780   4.4271730  40.9748020  79.5521940   5.4791330
  40.1432900  79.2970650   5.8787840  41.5829000  79.6232710   6.2149250
  37.3472980  77.1129480   5.1473420  37.9189090  76.3451680   5.1477060
  37.3474520  77.4118240   4.2380030  38.5897850  72.5213840   6.9342350
  38.4100690  71.6239590   7.2145110  38.1877930  73.0685710   7.6089300
  47.4296350  74.7229700   4.8354660  47.8061170  73.8501580   4.7228330
  47.3315860  75.0588400   3.9445100  51.2120470  72.2180140   1.7683000
  52.0330090  71.7276710   1.8108480  51.2454550  72.8077800   2.5214840
  39.2084520  75.0174340   5.5424690  39.8894630  75.2812710   6.1612090
  38.8932570  74.1775210   5.8762700  43.4009090  76.0641700   4.6297280
  43.9087310  76.5622670   5.2702300  43.9322330  75.2876900   4.4536640
  55.5020020  74.2346890   8.3326630  54.7972190  74.6228600   7.8141740
  55.7677940  74.9297180   8.9347560  41.6845190  70.7040260   8.8960700
  41.6863630  71.2212650   8.0906600  40.8549500  70.2270440   8.8730630
  51.4481950  74.1580520   4.5410540  50.7437520  74.4465410   5.1213650
  51.8094110  74.9680630   4.1810100  41.3660520  72.4150220   6.9031150
  41.7077330  73.2592270   6.6085020  40.4276330  72.5633960   7.0196490
  54.5168870  73.6035310   4.9319750  53.5693780  73.6374290   5.0635180
  54.8418860  74.4174260   5.3169110  45.0488410  69.9032490   3.2275740
  45.3563390  69.3479380   2.5111240  44.1189110  70.0376950   3.0448730
  53.9451010  78.9216840   6.9382050  53.1169640  78.9909930   6.4632180
  54.5401490  79.5071150   6.4697880  50.9093020  75.7086160   7.8836920
  50.4964200  76.5339870   8.1376910  50.1768970  75.1231200   7.6913280
  43.0425810  78.4946060   2.7455590  42.6382810  77.7823310   2.2501490
  43.1288930  78.1499300   3.6343630  41.7554430  75.2689270   6.5254630
  42.3069020  75.3784610   5.7507880  42.2697940  75.6426870   7.2409860
  41.4297160  78.7908630  10.1359970  41.2904930  79.6631430  10.5047370
  40.5478520  78.4481440   9.9907910  54.4349590  74.7602740  11.7659040
  53.8193860  75.2682410  11.2374500  54.1146010  73.8601070  11.7084980
  42.2094100  70.7326110   3.6285910  41.7662250  71.5135650   3.2970430
  42.7679090  71.0556000   4.3356850  46.4963910  73.5994630   9.2321230
  46.0343280  73.8077650  10.0441170  46.0942020  72.7853980   8.9291900
  51.4968420  74.8203580  10.3617890  50.6462010  74.5209330  10.6826960
  51.3370210  75.0645590   9.4501710  48.5918130  76.3205330  12.4616680
  48.9171540  75.4869080  12.1218910  49.3798460  76.8433850  12.6095010
  44.2470000  71.2773440   5.4875510  44.5442330  72.1836270   5.4067530
  44.7955560  70.7892220   4.8735080  44.4407530  76.7545260  12.0227430
  44.3451130  75.8139990  11.8727830  45.2839510  76.9760330  11.6275500
  39.5718070  73.1658930  10.1761210  39.1781460  74.0134140  10.3833990
  38.8836470  72.5285300  10.3669850  46.1463120  73.2493900  13.2457950
  45.4561440  73.0566100  13.8804040  46.8895420  73.5328540  13.7782250
  36.8735120  71.0887390   4.2091290  36.5848170  71.6590250   4.9216270
  37.6180880  70.6091840   4.5722520  48.4226090  77.0892340   6.0811870
  47.6907210  77.5979150   6.4301970  48.0250430  76.2722320   5.7800650
  44.8603480  73.7646540   4.4864360  44.8639540  73.3236490   3.6368900
  45.7554600  74.0863870   4.5936180  40.7105860  73.6473030   3.4458570
  40.3705910  74.1248260   4.2025620  39.9483180  73.1938150   3.0859670
  48.8852000  72.5426020   5.4934810  48.9024740  72.9934670   6.3376660
  48.6367580  71.6431660   5.7068250  52.3122750  69.9558200  11.3321190
  52.6368520  69.2247860  11.8579170  52.3479260  69.6371840  10.4302180
  45.1611450  77.8248320   6.2329770  45.5281580  77.3506890   6.9791110
  44.9716510  78.6989890   6.5738110  38.0251940  72.5692010   2.3623240
  37.7398860  72.2047680   3.2001860  37.9630800  71.8372470   1.7486380
  42.9510820  76.8656960   8.5513980  42.6467890  77.7448940   8.7764340
  43.9057280  76.9256750   8.5871420  39.0074550  77.7059700   9.6985340
  38.6489490  78.3713550  10.2858680  38.7129110  76.8743250  10.0697960
  42.2087670  78.1643940  12.5824890  41.9087810  78.3101120  11.6852710
  42.9798910  77.6049230  12.4898280  37.5823120  71.1952940  10.3757440
  36.8681640  71.3949860  10.9810050  38.0018160  70.4192510  10.7472240
  49.0761900  73.6875250   8.1258890  49.4442720  72.8670460   8.4538460
  48.2160100  73.7477140   8.5414540  46.0363890  76.3414840   8.3496860
  46.5349140  76.8160660   9.0148710  46.1786840  75.4178360   8.5566890
  53.2430750  72.5582800   9.1925250  52.7404350  73.2988200   9.5319060
  54.0587410  72.9466800   8.8762040  51.5352760  77.8015980   2.6386610
  50.5942900  77.8166210   2.8134300  51.8496830  77.0151940   3.0846910
  37.7351960  78.7375570  12.1179630  38.2390980  78.1582850  12.6895860
  36.9959380  79.0215800  12.6556000  39.7675040  76.8805160  13.0129700
  39.8080380  76.5819030  13.9214930  40.6220540  77.2812770  12.8537220
  41.7080850  75.4597260  10.9804190  41.1777310  74.9688210  10.3527530
  42.3768920  75.8881460  10.4462120  51.0781080  77.2662880  12.7484530
  51.6601850  76.5115200  12.6605010  51.2542850  77.7970320  11.9716010
  42.1953150  72.4259630  11.0601480  42.1010020  71.8080380  10.3352350
  41.6150540  73.1525920  10.8331390  44.9614590  70.9832870   8.0928870
  44.5131890  71.0057130   7.2474420  44.3279790  70.5851890   8.6899170
  47.7038040  77.6103380  10.0979150  47.8234250  77.0144520  10.8373990
  48.5632040  77.6473070   9.6780450  50.0425940  78.1640570   8.6741660
  49.5161160  78.6883190   8.0706800  50.3857280  78.7967960   9.3051390
  44.4706810  74.1524730  11.3554970  45.0606500  73.8440580  12.0432790
  43.6527050  73.6804480  11.5114870  49.2900240  73.7690540  11.5887990
  48.6015760  73.1072080  11.5237980  50.0106260  73.3228810  12.0336450
  37.7985700  78.1256830   2.4889820  37.1434540  77.8568470   1.8449520
  38.6363650  78.0161310   2.0391800  38.8361630  78.5109400   7.0293160
  39.2034670  78.4236800   7.9089180  38.2672450  77.7475950   6.9300020
  53.6365490  76.9793780  10.0423630  53.4051580  76.7506530   9.1421580
  53.8970040  77.8993330   9.9968520  38.3877630  75.4218490  10.9351580
  37.4933680  75.3885250  11.2745290  38.9275180  75.6205280  11.7002830
  52.0753560  72.2050210  12.8203330  52.9523740  72.2133610  13.2037330
  52.0874400  71.4681050  12.2095680  53.5216830  76.0579750   3.7091350
  54.0454310  75.5642400   3.0781520  54.1076250  76.1930110   4.4538920
  53.7006550  76.1419620   7.2310900  52.7509260  76.1083160   7.3455890
  53.8819560  77.0519730   6.9960670  38.8917340  69.6966820   5.2834800
  39.5393530  69.1464200   4.8429960  39.3119180  69.9509970   6.1050610
  54.4403960  73.9514050   2.1821440  54.3303240  73.7970090   3.1203710
  55.2011550  73.4234990   1.9396850  52.7869680  69.8908180   8.6404440
  53.4241900  70.5042320   9.0063630  52.9344570  69.9268840   7.6953670
  38.6449340  69.8522490   8.0260120  38.2964160  70.3086310   8.7918300
  38.3137040  68.9579620   8.1082550  46.1574160  71.0434370  11.5479540
  46.0963050  71.6356200  12.2974950  47.0974540  70.9360330  11.4029800
  48.7948720  70.7004430  11.1871830  49.4089130  71.0183720  10.5252910
  49.3398280  70.2153020  11.8067690  39.3169980  69.3798690  11.3010890
  39.8652970  69.1986740  10.5377000  39.3825290  68.5892800  11.8367200
  49.5356760  69.2636570   7.5141120  48.6616600  69.5971680   7.3114050
  49.4267510  68.7909750   8.3392990  50.4428740  71.4707440   8.8982840
  50.1142100  70.6559200   8.5184570  51.3911040  71.4277250   8.7748530
  47.2831580  70.1806410   6.4534030  46.5003370  70.6551910   6.7330790
  46.9894510  69.2761240   6.3447210  51.8352650  70.8829510   4.4983120
  52.2760740  70.8274610   3.6504720  51.5660240  71.7987520   4.5693300
  53.6991220  70.5144750   2.5091940  53.6379620  69.5705970   2.3622960
  54.4783250  70.6224840   3.0545400  49.6710780  69.2635610   3.2033130
  50.2740150  69.8355820   3.6781650  48.9303770  69.8275050   2.9807030
  43.3190540  70.0277060  13.0047600  43.0374810  70.5310660  12.2408420
  43.7010240  69.2298810  12.6389730  49.9206000  69.4430640  13.5828070
  49.8071450  69.7625250  14.4779590  50.7375740  69.8443150  13.2865350
  48.8264150  58.6879620  59.0436770  48.7458200  57.7734230  58.7728480
  48.4128570  59.1846690  58.3376480  46.9582190  60.4658640  60.9246040
  46.1824290  59.9859080  61.2144610  47.6095120  59.7864290  60.7502200
  40.9748020  60.7778450  61.8021800  40.1432900  60.5227160  62.2018310
  41.5829000  60.8489220  62.5379720  50.9789620  64.8718830  59.7045170
  50.5171150  64.1006070  60.0332340  51.7915170  64.8984900  60.2097620
  40.9549280  64.8118540  61.9979820  41.2577320  63.9216280  61.8190040
  41.6992870  65.3688760  61.7702070  39.3839970  55.7380340  55.5864190
  38.4956670  56.0796310  55.4844070  39.6681160  55.5380660  54.6945020
  37.3472980  58.3385990  61.4703890  37.9189090  57.5708190  61.4707530
  37.3474520  58.6374750  60.5610500  47.2052930  67.1576840  59.3249160
  46.5864370  67.6134340  58.7543600  48.0604710  67.3128300  58.9238860
  46.3991180  63.1415830  60.9316200  46.3299460  62.2005770  60.7705330
  47.1611040  63.2317240  61.5038770  47.4296350  55.9486210  61.1585130
  47.8061170  55.0758090  61.0458800  47.3315860  56.2844910  60.2675570
  41.5601360  54.3211840  56.6202570  41.6668110  55.2215570  56.9271330
  40.6493720  54.2729810  56.3297220  51.2120470  53.4436650  58.0913470
  52.0330090  52.9533220  58.1338950  51.2454550  54.0334310  58.8445310
  39.2084520  56.2430850  61.8655160  39.8894630  56.5069220  62.4842560
  38.8932570  55.4031720  62.1993170  43.4009090  57.2898210  60.9527750
  43.9087310  57.7879180  61.5932770  43.9322330  56.5133410  60.7767110
  48.0716280  62.0416080  56.7181070  47.4533550  62.5065530  56.1543790
  48.5839530  62.7343560  57.1350580  51.4481950  55.3837030  60.8641010
  50.7437520  55.6721920  61.4444120  51.8094110  56.1937140  60.5040570
  37.4399480  62.7272610  54.0920700  37.0627460  63.2159710  53.3605600
  37.6972550  63.3997890  54.7227230  53.0644730  65.0012160  63.1268490
  52.3808250  65.6711270  63.1185160  53.6039020  65.1992810  62.3613350
  54.5168870  54.8291820  61.2550220  53.5693780  54.8630800  61.3865650
  54.8418860  55.6430770  61.6399580  45.0488410  51.1289000  59.5506210
  45.3563390  50.5735890  58.8341710  44.1189110  51.2633460  59.3679200
  50.6003470  66.8456290  61.8413670  50.6130630  66.4418580  60.9735930
  50.0478690  67.6203580  61.7375100  51.8948890  63.5672510  56.9303840
  51.7845220  62.6246840  57.0553260  51.8917140  63.9288150  57.8166600
  47.4369170  59.1937830  56.2866330  46.5098450  59.1275210  56.5154800
  47.5893990  60.1317960  56.1721570  47.4238250  55.4654830  53.2833490
  46.4841920  55.6268790  53.3685950  47.7421510  56.1840510  52.7369480
  53.9451010  60.1473350  63.2612520  53.1169640  60.2166440  62.7862650
  54.5401490  60.7327660  62.7928350  51.4666460  60.7558130  56.7901580
  50.8478880  60.4177680  56.1427880  51.4490910  60.1117890  57.4980770
  43.0425810  59.7202570  59.0686060  42.6382810  59.0079820  58.5731960
  43.1288930  59.3755810  59.9574100  43.5107510  63.4070130  61.2325270
  43.2135800  62.8015600  60.5533050  44.4607330  63.4447440  61.1214630
  49.6431160  59.9944940  53.7974330  50.0824440  59.1567370  53.6512150
  50.3559580  60.6274340  53.8838470  47.7526540  64.9341010  57.7655570
  48.1922450  65.6765340  57.3510960  47.6913430  65.1767580  58.6894530
  53.2248300  51.2487750  52.1115370  52.9120960  51.3414580  53.0114440
  53.9860770  51.8268780  52.0612800  39.7430440  58.6147550  56.5692710
  39.6228040  59.3409640  55.9573980  39.4331330  57.8450460  56.0920620
  37.3815810  61.7862690  62.3761350  37.4596230  61.9211460  61.4317070
  37.9957490  61.0778580  62.5689470  38.6263440  63.4862880  58.7867530
  38.2191520  63.6277470  57.9321130  39.5176450  63.2023040  58.5838740
  50.4196720  67.9210130  55.1218580  50.2597860  67.6313070  56.0200410
  50.2543430  67.1450260  54.5863810  42.8985100  67.7008660  56.8990200
  42.7227580  66.7844200  56.6858000  42.0440840  68.0595950  57.1388000
  50.1222850  65.4297690  53.6816580  49.4288010  65.4274980  53.0218860
  50.8645710  65.0057010  53.2510750  49.6872780  67.0560400  57.7565070
  50.1429730  66.2749780  58.0703690  50.0265300  67.7667220  58.3006250
  42.2094100  51.9582620  59.9516380  41.7662250  52.7392160  59.6200900
  42.7679090  52.2812510  60.6587320  45.3252920  51.5793320  54.8322210
  44.7007100  51.5753190  55.5575520  45.2383040  50.7124280  54.4358180
  44.2470000  52.5029950  61.8105980  44.5442330  53.4092780  61.7298000
  44.7955560  52.0148730  61.1965550  42.0008320  57.0816190  57.6797630
  41.7749240  56.8653360  58.5844250  41.2200850  57.5144650  57.3343600
  49.2306080  57.0879560  56.2788280  48.6314970  57.8115360  56.0951900
  49.7785690  57.0256340  55.4964730  47.8370950  55.7243100  58.3091560
  48.2300520  56.0415300  57.4960250  48.1987800  54.8454980  58.4236080
  36.8735120  52.3143900  60.5321760  36.5848170  52.8846760  61.2446740
  37.6180880  51.8348350  60.8952990  37.0605350  56.2564020  51.7424480
  36.9780020  57.1994780  51.8839470  36.7088410  56.1138930  50.8636830
  48.4226090  58.3148850  62.4042340  47.6907210  58.8235660  62.7532440
  48.0250430  57.4978830  62.1031120  44.8603480  54.9903050  60.8094830
  44.8639540  54.5493000  59.9599370  45.7554600  55.3120380  60.9166650
  40.7105860  54.8729540  59.7689040  40.3705910  55.3504770  60.5256090
  39.9483180  54.4194660  59.4090140  44.9223630  55.9915130  53.8001590
  45.0436450  55.9501610  54.7487410  44.5372140  56.8539280  53.6448320
  48.8852000  53.7682530  61.8165280  48.9024740  54.2191180  62.6607130
  48.6367580  52.8688170  62.0298720  43.9345130  58.3016270  53.1984890
  43.3662030  57.8534520  52.5720800  44.6434130  58.6609050  52.6650040
  38.0251940  53.7948520  58.6853710  37.7398860  53.4304190  59.5232330
  37.9630800  53.0628980  58.0716850  41.4792610  62.2974460  55.4711300
  40.7054870  61.7572080  55.3110020  42.2087240  61.7781070  55.1329060
  52.2380590  61.2939820  61.2637690  52.9579710  61.7895110  60.8733800
  52.0362410  60.6157710  60.6191560  47.6990530  52.6877780  55.4067080
  46.8855140  52.1890950  55.3312390  47.5052480  53.5276030  54.9903430
  50.4138920  57.0597430  53.7029240  51.3018540  57.3714660  53.5280580
  50.3844010  56.1869680  53.3109820  41.5230010  61.9654840  59.1090110
  42.0408680  61.1623100  59.0547000  41.0714030  61.9033980  59.9506940
  46.4099510  63.2321120  54.3817410  46.7515210  63.9763350  53.8860730
  45.5812220  63.5452240  54.7442240  53.7140440  65.2251530  55.8991230
  53.0716600  64.5707150  56.1734950  53.3271100  65.6306620  55.1231900
  49.2926920  62.5536960  59.7462920  49.6450740  61.9565090  59.0864290
  48.4089250  62.2281190  59.9171170  45.3790200  63.3134650  57.1533330
  46.0661330  63.8603860  57.5340920  44.5922620  63.8575380  57.1882940
  37.5182600  58.9307470  52.6450410  38.3877450  59.2132270  52.9286330
  37.0272920  59.7443340  52.5299220  44.6817410  60.3180680  56.7658690
  45.1380190  61.1285930  56.9918880  44.3305620  60.0003820  57.5977180
  40.5829190  50.6618330  57.2381210  40.4543820  50.6536230  58.1866130
  39.7591210  51.0001420  56.8872220  48.2582100  63.8319370  62.7128440
  48.9004330  63.1312530  62.8260610  48.7831450  64.6117810  62.5325330
  52.1037820  64.1167990  52.4367580  51.8775400  63.3998430  53.0292220
  51.7134020  63.8680430  51.5989330  37.8853850  68.1434850  53.2112040
  38.2451490  68.7424190  52.5569310  37.7446190  68.6894740  53.9847070
  51.6854070  62.0339930  54.0981740  51.3975770  62.4952620  54.8859620
  52.4806240  61.5737700  54.3665960  43.9022470  65.5266050  54.0285710
  43.8932570  66.2595740  53.4130220  42.9820830  65.2797630  54.1212670
  39.5029110  60.7480940  54.7732470  38.8957060  61.4879840  54.7827770
  39.9778460  60.8380300  53.9470670  52.4423930  53.8688700  55.2576920
  51.8137090  53.9734370  54.5435150  51.9475850  54.0885480  56.0470800
  46.8882070  65.5894290  52.6910900  46.9894050  65.3858280  51.7612880
  45.9883810  65.3352570  52.8958680  44.4107960  56.1474650  56.6734800
  43.7024110  56.6160990  57.1148410  44.6952440  55.4896660  57.3079990
  48.4423390  52.8725310  58.1130590  48.3191170  52.8911440  57.1640100
  49.3907950  52.9204250  58.2328990  45.5300180  68.1080610  57.3858570
  45.7841680  68.0702000  56.4637940  44.5812660  67.9813940  57.3786820
  42.6142980  54.4559730  54.0485510  43.4633510  54.8929880  53.9825700
  42.2474250  54.7679990  54.8757570  51.5352760  59.0272490  58.9617080
  50.5942900  59.0422720  59.1364770  51.8496830  58.2408450  59.4077380
  41.5134400  60.7092090  52.5221040  42.2797670  60.5973450  53.0846470
  41.5909090  60.0130060  51.8697810  40.2081160  58.1417160  53.2053930
  40.2884750  57.1944670  53.3171330  41.1000910  58.4724040  53.3114590
  53.5378340  66.1981340  60.6371340  53.6625760  67.0212510  61.1095150
  54.4043900  65.9872070  60.2895490  41.0095870  68.2912550  60.3088470
  41.7458350  67.7428010  60.5797040  41.3936790  69.1568560  60.1694460
  37.8941350  64.3586120  56.1829980  36.9681130  64.6007260  56.1735390
  38.3597780  65.1860380  56.0614730  44.1198180  67.4642860  52.1314040
  44.9126790  67.7531690  51.6795830  43.6002530  67.0335030  51.4526520
  53.1728350  66.6912990  53.5550780  52.8869860  66.2778130  52.7404960
  52.9747900  67.6200700  53.4351300  44.6375580  62.6846270  51.9956390
  44.5326220  62.0698620  52.7217770  44.4699800  62.1612160  51.2119400
  47.8778310  61.7466300  52.5998380  47.3288410  62.1935600  53.2441120
  48.4997570  61.2415550  53.1236050  43.5453430  60.7057220  54.4963680
  43.9669850  60.5397090  55.3395070  43.6704270  59.8957450  54.0018820
  46.0581070  59.7294830  51.7440780  46.5786730  59.0143850  51.3781930
  46.7049470  60.3680700  52.0441290  42.4412330  56.7790450  51.4421840
  42.2401390  55.9157810  51.8035180  42.2704380  56.6923810  50.5043440
  49.9200640  51.5898680  53.9708720  50.2002930  50.7466580  54.3268140
  49.1466370  51.8221790  54.4847470  44.4580060  52.8225690  52.4155920
  44.1102060  52.1449680  51.8358370  44.6592830  52.3615200  53.2299310
  46.6229100  67.8106440  54.0342520  47.5179890  68.1491410  54.0561280
  46.6546730  67.0885850  53.4066800  40.2625260  63.1833490  52.2629520
  40.7000130  63.7263160  52.9187100  40.7472990  62.3580440  52.2725860
  37.4771060  65.9722520  59.7149780  37.8074070  65.1043580  59.4828420
  37.9062060  66.1781040  60.5454740  42.0732980  64.3031530  57.3751750
  41.7728520  64.1796500  58.2755660  41.9670470  63.4440120  56.9667480
  54.8424900  64.0827930  52.0778430  54.0117860  64.1504580  52.5485660
  55.0196730  64.9732050  51.7745290  54.2981360  60.8275410  54.5812630
  55.0600270  61.3972060  54.6872320  54.3135730  60.2602610  55.3520940
  37.7985700  59.3513340  58.8120290  37.1434540  59.0824980  58.1679990
  38.6363650  59.2417820  58.3622270  55.3041330  61.6825510  59.4254560
  55.6750160  60.8992830  59.0190530  55.9443260  62.3714610  59.2471860
  54.3500530  61.1209780  51.7385150  54.6249370  62.0288660  51.6104370
  54.1611270  61.0572310  52.6747140  54.2465870  59.0578770  56.7314580
  53.8709470  58.2906700  56.2995870  53.5168990  59.4401470  57.2189510
  37.0123780  56.5612270  54.7545620  36.1087860  56.8242470  54.5797280
  37.4964400  56.8323440  53.9745580  53.5216830  57.2836260  60.0321820
  54.0454310  56.7898910  59.4011990  54.1076250  57.4186620  60.7769390
  39.5550990  55.6177810  52.6640000  40.2642690  55.1961030  52.1787280
  38.8390930  55.6853040  52.0323350  39.2025150  51.6717140  51.7042650
  39.9253280  52.2126080  52.0223870  39.4749670  51.3980560  50.8284190
  53.0116800  56.5409610  55.9714230  53.5075920  56.3080480  56.7563110
  52.8132870  55.7021450  55.5551870  38.8917340  50.9223330  61.6065270
  39.5393530  50.3720710  61.1660430  39.3119180  51.1766480  62.4281080
  54.4403960  55.1770560  58.5051910  54.3303240  55.0226600  59.4434180
  55.2011550  54.6491500  58.2627320  55.4032720  53.7789140  54.3714760
  54.6084220  53.7134260  54.9007670  55.6076000  54.7139780  54.3600110
  52.3451140  67.8180690  58.3653150  52.9410210  67.4965260  57.6887570
  52.6029290  67.3452510  59.1566420  52.8963350  68.4675990  62.1950880
  52.4366320  69.2191800  61.8208900  52.2675810  67.7482460  62.1365680
  43.3259070  66.7764230  61.3699010  43.8424090  66.1651590  60.8447270
  43.9756450  67.2793010  61.8610020  46.0654570  67.6672720  62.1967990
  46.3532380  67.4127020  61.3201000  46.5777790  67.1150080  62.7873560
  47.2831580  51.4062920  62.7764500  46.5003370  51.8808420  63.0561260
  46.9894510  50.5017750  62.6677680  51.8352650  52.1086020  60.8213590
  52.2760740  52.0531120  59.9735190  51.5660240  53.0244030  60.8923770
  53.6991220  51.7401260  58.8322410  53.6379620  50.7962480  58.6853430
  54.4783250  51.8481350  59.3775870  38.0043970  67.8793620  57.7946360
  37.8366010  67.2464300  58.4928250  37.1378480  68.0853020  57.4440550
  38.6271990  51.7110400  55.2978220  39.3851350  51.8239280  54.7242250
  38.1649160  52.5479600  55.2521650  45.1685800  53.8249670  58.2880530
  44.3560310  53.4506560  57.9476410  45.6727440  53.0694750  58.5901720
  49.6710780  50.4892120  59.5263600  50.2740150  51.0612330  60.0012120
  48.9303770  51.0531560  59.3037500  52.8145380  50.8913680  54.8003880
  53.0096010  51.7897130  55.0671310  52.0275250  50.6600760  55.2936830
  39.6106670  66.5726850  55.2396500  39.0854290  66.9534880  54.5358460
  39.5351250  67.1977620  55.9606210  40.9997140  52.2374450  53.8380190
  41.5289900  51.4504250  53.7088140  41.6325460  52.9165640  54.0715720
  43.1934980  51.9749590  56.8925580  42.5637720  51.2736900  57.0595710
  42.6540120  52.7353720  56.6758740  54.3671990  68.1314390  56.5610440
  54.5424180  67.4452130  55.9171360  53.6693560  68.6561440  56.1687110
  42.2099640  68.5209230  54.1145750  42.9418460  68.2368510  53.5669640
  42.4693310  68.2822510  55.0045130  41.3714430  64.6373960  54.1192080
  40.7423310  65.1059060  54.6677910  41.4862260  63.7923180  54.5538270
  50.9789620  64.8718830  40.9301680  50.5171150  64.1006070  41.2588850
  51.7915170  64.8984900  41.4354130  40.9549280  64.8118540  43.2236330
  41.2577320  63.9216280  43.0446550  41.6992870  65.3688760  42.9958580
  47.2052930  67.1576840  40.5505670  46.5864370  67.6134340  39.9800110
  48.0604710  67.3128300  40.1495370  53.0644730  65.0012160  44.3525000
  52.3808250  65.6711270  44.3441670  53.6039020  65.1992810  43.5869860
  50.6003470  66.8456290  43.0670180  50.6130630  66.4418580  42.1992440
  50.0478690  67.6203580  42.9631610  51.8948890  63.5672510  38.1560350
  51.7845220  62.6246840  38.2809770  51.8917140  63.9288150  39.0423110
  53.9451010  60.1473350  44.4869030  53.1169640  60.2166440  44.0119160
  54.5401490  60.7327660  44.0184860  51.5993120  66.9802000  46.1204880
  51.1223680  67.7874190  45.9277490  50.9154910  66.3280330  46.2731090
  43.2277510  65.9586840  49.8932100  43.1992940  66.3629790  49.0260530
  43.0642480  65.0297200  49.7303700  55.1792330  66.7413940  51.1896270
  55.6552050  67.2196830  51.8685350  55.7999490  66.6731430  50.4641770
  54.5825580  63.9326790  48.3496280  54.7088640  63.6938670  47.4313460
  54.6246960  63.1011330  48.8218360  48.4442320  67.6354790  46.9191090
  48.9586990  67.5462800  47.7213520  47.6011400  67.9814490  47.2119000
  50.4196720  67.9210130  36.3475090  50.2597860  67.6313070  37.2456920
  50.2543430  67.1450260  35.8120320  42.8985100  67.7008660  38.1246710
  42.7227580  66.7844200  37.9114510  42.0440840  68.0595950  38.3644510
  50.1222850  65.4297690  34.9073090  49.4288010  65.4274980  34.2475370
  50.8645710  65.0057010  34.4767260  49.6872780  67.0560400  38.9821580
  50.1429730  66.2749780  39.2960200  50.0265300  67.7667220  39.5262760
  37.4375330  62.8276860  46.1412320  37.6006370  62.3582220  45.3231690
  37.9027780  62.3200420  46.8061160  47.5516120  64.1869450  48.1267000
  47.5660660  63.2550410  47.9085910  46.8441220  64.2729210  48.7656770
  53.7627330  60.8276790  47.4735580  53.0375520  61.4205570  47.2764970
  54.2902790  60.8200330  46.6748950  53.7140440  65.2251530  37.1247740
  53.0716600  64.5707150  37.3991460  53.3271100  65.6306620  36.3488410
  46.9850020  65.8287020  45.2207500  47.6292240  66.0346400  45.8980920
  47.3479460  65.0675420  44.7678350  48.2582100  63.8319370  43.9384950
  48.9004330  63.1312530  44.0517120  48.7831450  64.6117810  43.7581840
  52.1037820  64.1167990  33.6624090  51.8775400  63.3998430  34.2548730
  51.7134020  63.8680430  32.8245840  50.0319720  64.6314270  47.1421010
  50.3675960  65.2180960  47.8198930  49.1120060  64.5006980  47.3718800
  51.6854070  62.0339930  35.3238250  51.3975770  62.4952620  36.1116130
  52.4806240  61.5737700  35.5922470  37.8695710  66.4089710  48.9110950
  37.9786830  65.4684450  48.7706340  37.2176270  66.6744460  48.2624680
  45.8608300  64.6805600  50.3109070  45.5405170  63.9614840  50.8554760
  45.1866660  65.3560670  50.3845130  46.8882070  65.5894290  33.9167410
  46.9894050  65.3858280  32.9869390  45.9883810  65.3352570  34.1215190
  45.5300180  68.1080610  38.6115080  45.7841680  68.0702000  37.6894450
  44.5812660  67.9813940  38.6043330  53.5378340  66.1981340  41.8627850
  53.6625760  67.0212510  42.3351660  54.4043900  65.9872070  41.5152000
  41.0095870  68.2912550  41.5344980  41.7458350  67.7428010  41.8053550
  41.3936790  69.1568560  41.3950970  40.0154150  67.4758620  50.7230560
  40.8166880  67.7970670  51.1365960  39.5005970  67.1154200  51.4450470
  48.8518780  63.5838490  50.6705970  48.2456940  63.6070090  49.9301720
  48.5472890  62.8521530  51.2073220  50.2819150  67.3118780  49.2815380
  51.2340900  67.2276800  49.2315620  50.1347370  67.9760490  49.9549170
  53.1728350  66.6912990  34.7807290  52.8869860  66.2778130  33.9661470
  52.9747900  67.6200700  34.6607810  51.9313250  63.1008400  49.7577150
  52.6722720  63.4384160  49.2544610  51.1685930  63.2700460  49.2046920
  43.2181560  67.4096720  47.3786020  42.6802650  68.1342780  47.0594720
  43.4715520  66.9327060  46.5883360  46.0743770  68.6447930  47.6372670
  46.0002470  69.5483070  47.9445040  45.1722610  68.3259830  47.6094740
  46.6229100  67.8106440  35.2599030  47.5179890  68.1491410  35.2817790
  46.6546730  67.0885850  34.6323310  37.9661270  66.8393110  43.6787920
  37.5292260  67.0193910  44.5112070  38.5338950  67.5967730  43.5369640
  53.6023450  66.3410110  47.9665230  53.0025440  66.4002670  47.2229150
  53.7317350  65.4015090  48.0962080  54.8424900  64.0827930  33.3034940
  54.0117860  64.1504580  33.7742170  55.0196730  64.9732050  33.0001800
  54.2981360  60.8275410  35.8069140  55.0600270  61.3972060  35.9128830
  54.3135730  60.2602610  36.5777450  55.3041330  61.6825510  40.6511070
  55.6750160  60.8992830  40.2447040  55.9443260  62.3714610  40.4728370
  52.2875090  63.0662090  46.0641390  51.4734930  63.4959250  46.3267180
  52.6949290  63.6780500  45.4510440  54.3500530  61.1209780  32.9641660
  54.6249370  62.0288660  32.8360880  54.1611270  61.0572310  33.9003650
  52.3451140  67.8180690  39.5909660  52.9410210  67.4965260  38.9144080
  52.6029290  67.3452510  40.3822930  40.2513710  64.2498600  49.7400290
  40.2083340  63.8791510  50.6214750  40.3824720  65.1876170  49.8802110
  43.9519740  65.8058190  45.3410010  43.7111100  66.0732750  44.4540530
  44.8922380  65.9763920  45.3960870  55.2123900  67.8252570  46.1420650
  54.7182180  68.2221440  45.4247780  54.6037190  67.2001780  46.5357930
  40.0901740  67.1960850  46.8598070  39.4962060  67.0645550  47.5988110
  40.0825580  66.3598990  46.3940170  52.8963350  68.4675990  43.4207390
  52.4366320  69.2191800  43.0465410  52.2675810  67.7482460  43.3622190
  39.7213970  64.5619230  45.8106110  38.9948030  63.9424520  45.7432060
  39.7823120  64.9559840  44.9404190  43.3259070  66.7764230  42.5955520
  43.8424090  66.1651590  42.0703780  43.9756450  67.2793010  43.0866530
  46.0654570  67.6672720  43.4224500  46.3532380  67.4127020  42.5457510
  46.5777790  67.1150080  44.0130070  46.1326930  68.5888820  50.7892700
  47.0594240  68.3533090  50.8328660  46.1177360  69.4160820  50.3078730
  54.3671990  68.1314390  37.7866950  54.5424180  67.4452130  37.1427870
  53.6693560  68.6561440  37.3943620  43.3190540  51.2533570  50.5534580
  43.0374810  51.7567170  49.7895400  43.7010240  50.4555320  50.1876710
  49.9206000  50.6687150  51.1315050  49.8071450  50.9881760  52.0266570
  50.7375740  51.0699660  50.8352330  52.7004490  67.8158680  50.6133740
  53.4929810  67.3207910  50.4059700  52.9937640  68.4948820  51.2209350
  50.9789620  64.8718830  22.1558190  50.5171150  64.1006070  22.4845360
  51.7915170  64.8984900  22.6610640  47.2052930  67.1576840  21.7762180
  46.5864370  67.6134340  21.2056620  48.0604710  67.3128300  21.3751880
  37.4399480  62.7272610  16.5433720  37.0627460  63.2159710  15.8118620
  37.6972550  63.3997890  17.1740250  53.0644730  65.0012160  25.5781510
  52.3808250  65.6711270  25.5698180  53.6039020  65.1992810  24.8126370
  50.6003470  66.8456290  24.2926690  50.6130630  66.4418580  23.4248950
  50.0478690  67.6203580  24.1888120  51.8948890  63.5672510  19.3816860
  51.7845220  62.6246840  19.5066280  51.8917140  63.9288150  20.2679620
  51.4666460  60.7558130  19.2414600  50.8478880  60.4177680  18.5940900
  51.4490910  60.1117890  19.9493790  51.5993120  66.9802000  27.3461390
  51.1223680  67.7874190  27.1534000  50.9154910  66.3280330  27.4987600
  49.6431160  59.9944940  16.2487350  50.0824440  59.1567370  16.1025170
  50.3559580  60.6274340  16.3351490  47.7526540  64.9341010  20.2168590
  48.1922450  65.6765340  19.8023980  47.6913430  65.1767580  21.1407550
  53.2248300  51.2487750  14.5628390  52.9120960  51.3414580  15.4627460
  53.9860770  51.8268780  14.5125820  55.1792330  66.7413940  32.4152780
  55.6552050  67.2196830  33.0941860  55.7999490  66.6731430  31.6898280
  38.6263440  63.4862880  21.2380550  38.2191520  63.6277470  20.3834150
  39.5176450  63.2023040  21.0351760  54.5825580  63.9326790  29.5752790
  54.7088640  63.6938670  28.6569970  54.6246960  63.1011330  30.0474870
  48.4442320  67.6354790  28.1447600  48.9586990  67.5462800  28.9470030
  47.6011400  67.9814490  28.4375510  50.4196720  67.9210130  17.5731600
  50.2597860  67.6313070  18.4713430  50.2543430  67.1450260  17.0376830
  42.8985100  67.7008660  19.3503220  42.7227580  66.7844200  19.1371020
  42.0440840  68.0595950  19.5901020  50.1222850  65.4297690  16.1329600
  49.4288010  65.4274980  15.4731880  50.8645710  65.0057010  15.7023770
  49.6872780  67.0560400  20.2078090  50.1429730  66.2749780  20.5216710
  50.0265300  67.7667220  20.7519270  37.0605350  56.2564020  14.1937500
  36.9780020  57.1994780  14.3352490  36.7088410  56.1138930  13.3149850
  52.2380590  61.2939820  23.7150710  52.9579710  61.7895110  23.3246820
  52.0362410  60.6157710  23.0704580  47.6990530  52.6877780  17.8580100
  46.8855140  52.1890950  17.7825410  47.5052480  53.5276030  17.4416450
  50.4138920  57.0597430  16.1542260  51.3018540  57.3714660  15.9793600
  50.3844010  56.1869680  15.7622840  46.4099510  63.2321120  16.8330430
  46.7515210  63.9763350  16.3373750  45.5812220  63.5452240  17.1955260
  52.6853190  58.3709270  15.6222120  52.6016910  58.8023490  14.7718560
  53.4047380  58.8307620  16.0548940  53.7140440  65.2251530  18.3504250
  53.0716600  64.5707150  18.6247970  53.3271100  65.6306620  17.5744920
  49.2926920  62.5536960  22.1975940  49.6450740  61.9565090  21.5377310
  48.4089250  62.2281190  22.3684190  37.5182600  58.9307470  15.0963430
  38.3877450  59.2132270  15.3799350  37.0272920  59.7443340  14.9812240
  52.1037820  64.1167990  14.8880600  51.8775400  63.3998430  15.4805240
  51.7134020  63.8680430  14.0502350  50.0319720  64.6314270  28.3677520
  50.3675960  65.2180960  29.0455440  49.1120060  64.5006980  28.5975310
  37.8853850  68.1434850  15.6625060  38.2451490  68.7424190  15.0082330
  37.7446190  68.6894740  16.4360090  51.6854070  62.0339930  16.5494760
  51.3975770  62.4952620  17.3372640  52.4806240  61.5737700  16.8178980
  43.9022470  65.5266050  16.4798730  43.8932570  66.2595740  15.8643240
  42.9820830  65.2797630  16.5725690  39.5029110  60.7480940  17.2245490
  38.8957060  61.4879840  17.2340790  39.9778460  60.8380300  16.3983690
  52.4423930  53.8688700  17.7089940  51.8137090  53.9734370  16.9948170
  51.9475850  54.0885480  18.4983820  46.8882070  65.5894290  15.1423920
  46.9894050  65.3858280  14.2125900  45.9883810  65.3352570  15.3471700
  45.5300180  68.1080610  19.8371590  45.7841680  68.0702000  18.9150960
  44.5812660  67.9813940  19.8299840  41.5134400  60.7092090  14.9734060
  42.2797670  60.5973450  15.5359490  41.5909090  60.0130060  14.3210830
  53.5378340  66.1981340  23.0884360  53.6625760  67.0212510  23.5608170
  54.4043900  65.9872070  22.7408510  41.0095870  68.2912550  22.7601490
  41.7458350  67.7428010  23.0310060  41.3936790  69.1568560  22.6207480
  37.8941350  64.3586120  18.6343000  36.9681130  64.6007260  18.6248410
  38.3597780  65.1860380  18.5127750  44.1198180  67.4642860  14.5827060
  44.9126790  67.7531690  14.1308850  43.6002530  67.0335030  13.9039540
  50.2819150  67.3118780  30.5071890  51.2340900  67.2276800  30.4572130
  50.1347370  67.9760490  31.1805680  53.1728350  66.6912990  16.0063800
  52.8869860  66.2778130  15.1917980  52.9747900  67.6200700  15.8864320
  44.6375580  62.6846270  14.4469410  44.5326220  62.0698620  15.1730790
  44.4699800  62.1612160  13.6632420  47.8778310  61.7466300  15.0511400
  47.3288410  62.1935600  15.6954140  48.4997570  61.2415550  15.5749070
  51.9313250  63.1008400  30.9833660  52.6722720  63.4384160  30.4801120
  51.1685930  63.2700460  30.4303430  42.4412330  56.7790450  13.8934860
  42.2401390  55.9157810  14.2548200  42.2704380  56.6923810  12.9556460
  43.2181560  67.4096720  28.6042530  42.6802650  68.1342780  28.2851230
  43.4715520  66.9327060  27.8139870  49.9200640  51.5898680  16.4221740
  50.2002930  50.7466580  16.7781160  49.1466370  51.8221790  16.9360490
  41.2395130  53.8791070  13.8812740  41.5421030  53.8858500  12.9731890
  41.9789720  53.5288930  14.3780400  46.0743770  68.6447930  28.8629180
  46.0002470  69.5483070  29.1701550  45.1722610  68.3259830  28.8351250
  44.4580060  52.8225690  14.8668940  44.1102060  52.1449680  14.2871390
  44.6592830  52.3615200  15.6812330  46.6229100  67.8106440  16.4855540
  47.5179890  68.1491410  16.5074300  46.6546730  67.0885850  15.8579820
  40.2625260  63.1833490  14.7142540  40.7000130  63.7263160  15.3700120
  40.7472990  62.3580440  14.7238880  37.4771060  65.9722520  22.1662800
  37.8074070  65.1043580  21.9341440  37.9062060  66.1781040  22.9967760
  42.0732980  64.3031530  19.8264770  41.7728520  64.1796500  20.7268680
  41.9670470  63.4440120  19.4180500  37.9661270  66.8393110  24.9044430
  37.5292260  67.0193910  25.7368580  38.5338950  67.5967730  24.7626150
  53.6023450  66.3410110  29.1921740  53.0025440  66.4002670  28.4485660
  53.7317350  65.4015090  29.3218590  54.8424900  64.0827930  14.5291450
  54.0117860  64.1504580  14.9998680  55.0196730  64.9732050  14.2258310
  54.2981360  60.8275410  17.0325650  55.0600270  61.3972060  17.1385340
  54.3135730  60.2602610  17.8033960  55.3041330  61.6825510  21.8767580
  55.6750160  60.8992830  21.4703550  55.9443260  62.3714610  21.6984880
  52.2875090  63.0662090  27.2897900  51.4734930  63.4959250  27.5523690
  52.6949290  63.6780500  26.6766950  54.3500530  61.1209780  14.1898170
  54.6249370  62.0288660  14.0617390  54.1611270  61.0572310  15.1260160
  50.7476140  54.1454630  15.4851800  51.1661020  53.9585610  14.6448460
  50.4412200  53.2933680  15.7954730  54.2465870  59.0578770  19.1827600
  53.8709470  58.2906700  18.7508890  53.5168990  59.4401470  19.6702530
  39.5550990  55.6177810  15.1153020  40.2642690  55.1961030  14.6300300
  38.8390930  55.6853040  14.4836370  39.2025150  51.6717140  14.1555670
  39.9253280  52.2126080  14.4736890  39.4749670  51.3980560  13.2797210
  53.0116800  56.5409610  18.4227250  53.5075920  56.3080480  19.2076130
  52.8132870  55.7021450  18.0064890  55.3294230  53.0078480  14.1971070
  56.2543540  52.8759660  13.9889360  55.3070020  53.0871300  15.1507520
  55.4032720  53.7789140  16.8227780  54.6084220  53.7134260  17.3520690
  55.6076000  54.7139780  16.8113130  52.3451140  67.8180690  20.8166170
  52.9410210  67.4965260  20.1400590  52.6029290  67.3452510  21.6079440
  55.2123900  67.8252570  27.3677160  54.7182180  68.2221440  26.6504290
  54.6037190  67.2001780  27.7614440  40.0901740  67.1960850  28.0854580
  39.4962060  67.0645550  28.8244620  40.0825580  66.3598990  27.6196680
  52.8963350  68.4675990  24.6463900  52.4366320  69.2191800  24.2721920
  52.2675810  67.7482460  24.5878700  38.0043970  67.8793620  20.2459380
  37.8366010  67.2464300  20.9441270  37.1378480  68.0853020  19.8953570
  52.8145380  50.8913680  17.2516900  53.0096010  51.7897130  17.5184330
  52.0275250  50.6600760  17.7449850  39.6106670  66.5726850  17.6909520
  39.0854290  66.9534880  16.9871480  39.5351250  67.1977620  18.4119230
  46.1326930  68.5888820  32.0149210  47.0594240  68.3533090  32.0585170
  46.1177360  69.4160820  31.5335240  54.3671990  68.1314390  19.0123460
  54.5424180  67.4452130  18.3684380  53.6693560  68.6561440  18.6200130
  42.2099640  68.5209230  16.5658770  42.9418460  68.2368510  16.0182660
  42.4693310  68.2822510  17.4558150  41.3714430  64.6373960  16.5705100
  40.7423310  65.1059060  17.1190930  41.4862260  63.7923180  17.0051290
  52.7004490  67.8158680  31.8390250  53.4929810  67.3207910  31.6316210
  52.9937640  68.4948820  32.4465860  48.8264150  58.6879620   2.7206300
  48.7458200  57.7734230   2.4498010  48.4128570  59.1846690   2.0146010
  46.9582190  60.4658640   4.6015570  46.1824290  59.9859080   4.8914140
  47.6095120  59.7864290   4.4271730  40.9748020  60.7778450   5.4791330
  40.1432900  60.5227160   5.8787840  41.5829000  60.8489220   6.2149250
  50.9789620  64.8718830   3.3814700  50.5171150  64.1006070   3.7101870
  51.7915170  64.8984900   3.8867150  40.9549280  64.8118540   5.6749350
  41.2577320  63.9216280   5.4959570  41.6992870  65.3688760   5.4471600
  37.3472980  58.3385990   5.1473420  37.9189090  57.5708190   5.1477060
  37.3474520  58.6374750   4.2380030  47.2052930  67.1576840   3.0018690
  46.5864370  67.6134340   2.4313130  48.0604710  67.3128300   2.6008390
  46.3991180  63.1415830   4.6085730  46.3299460  62.2005770   4.4474860
  47.1611040  63.2317240   5.1808300  38.5897850  53.7470350   6.9342350
  38.4100690  52.8496100   7.2145110  38.1877930  54.2942220   7.6089300
  47.4296350  55.9486210   4.8354660  47.8061170  55.0758090   4.7228330
  47.3315860  56.2844910   3.9445100  51.2120470  53.4436650   1.7683000
  52.0330090  52.9533220   1.8108480  51.2454550  54.0334310   2.5214840
  39.2084520  56.2430850   5.5424690  39.8894630  56.5069220   6.1612090
  38.8932570  55.4031720   5.8762700  43.4009090  57.2898210   4.6297280
  43.9087310  57.7879180   5.2702300  43.9322330  56.5133410   4.4536640
  55.5020020  55.4603400   8.3326630  54.7972190  55.8485110   7.8141740
  55.7677940  56.1553690   8.9347560  41.6845190  51.9296770   8.8960700
  41.6863630  52.4469160   8.0906600  40.8549500  51.4526950   8.8730630
  42.9348040  61.5691950   7.0734200  42.6017420  62.1960870   7.7155270
  43.1114720  62.0953830   6.2935870  51.4481950  55.3837030   4.5410540
  50.7437520  55.6721920   5.1213650  51.8094110  56.1937140   4.1810100
  41.3660520  53.6406730   6.9031150  41.7077330  54.4848780   6.6085020
  40.4276330  53.7890470   7.0196490  42.1467140  63.5372750   8.8883380
  42.7641140  64.2123830   8.6067830  41.2860260  63.9460730   8.7970880
  53.0644730  65.0012160   6.8038020  52.3808250  65.6711270   6.7954690
  53.6039020  65.1992810   6.0382880  54.5168870  54.8291820   4.9319750
  53.5693780  54.8630800   5.0635180  54.8418860  55.6430770   5.3169110
  45.0488410  51.1289000   3.2275740  45.3563390  50.5735890   2.5111240
  44.1189110  51.2633460   3.0448730  50.6003470  66.8456290   5.5183200
  50.6130630  66.4418580   4.6505460  50.0478690  67.6203580   5.4144630
  49.9988910  61.7486130   6.8465810  50.4157700  61.5346240   6.0119270
  50.7228730  62.0058920   7.4174430  53.9451010  60.1473350   6.9382050
  53.1169640  60.2166440   6.4632180  54.5401490  60.7327660   6.4697880
  50.9093020  56.9342670   7.8836920  50.4964200  57.7596380   8.1376910
  50.1768970  56.3487710   7.6913280  43.0425810  59.7202570   2.7455590
  42.6382810  59.0079820   2.2501490  43.1288930  59.3755810   3.6343630
  43.5107510  63.4070130   4.9094800  43.2135800  62.8015600   4.2302580
  44.4607330  63.4447440   4.7984160  41.7554430  56.4945780   6.5254630
  42.3069020  56.6041120   5.7507880  42.2697940  56.8683380   7.2409860
  51.5993120  66.9802000   8.5717900  51.1223680  67.7874190   8.3790510
  50.9154910  66.3280330   8.7244110  42.6025940  63.1451820  11.5602600
  41.7054470  63.3691790  11.8076000  42.6278810  63.2686760  10.6114000
  41.4297160  60.0165140  10.1359970  41.2904930  60.8887940  10.5047370
  40.5478520  59.6737950   9.9907910  43.2277510  65.9586840  12.3445120
  43.1992940  66.3629790  11.4773550  43.0642480  65.0297200  12.1816720
  55.1792330  66.7413940  13.6409290  55.6552050  67.2196830  14.3198370
  55.7999490  66.6731430  12.9154790  37.3815810  61.7862690   6.0530880
  37.4596230  61.9211460   5.1086600  37.9957490  61.0778580   6.2459000
  54.5825580  63.9326790  10.8009300  54.7088640  63.6938670   9.8826480
  54.6246960  63.1011330  11.2731380  48.4442320  67.6354790   9.3704110
  48.9586990  67.5462800  10.1726540  47.6011400  67.9814490   9.6632020
  54.4349590  55.9859250  11.7659040  53.8193860  56.4938920  11.2374500
  54.1146010  55.0857580  11.7084980  37.4375330  62.8276860   8.5925340
  37.6006370  62.3582220   7.7744710  37.9027780  62.3200420   9.2574180
  42.2094100  51.9582620   3.6285910  41.7662250  52.7392160   3.2970430
  42.7679090  52.2812510   4.3356850  46.4963910  54.8251140   9.2321230
  46.0343280  55.0334160  10.0441170  46.0942020  54.0110490   8.9291900
  51.4968420  56.0460090  10.3617890  50.6462010  55.7465840  10.6826960
  51.3370210  56.2902100   9.4501710  48.5918130  57.5461840  12.4616680
  48.9171540  56.7125590  12.1218910  49.3798460  58.0690360  12.6095010
  44.2470000  52.5029950   5.4875510  44.5442330  53.4092780   5.4067530
  44.7955560  52.0148730   4.8735080  44.4407530  57.9801770  12.0227430
  44.3451130  57.0396500  11.8727830  45.2839510  58.2016840  11.6275500
  39.5718070  54.3915440  10.1761210  39.1781460  55.2390650  10.3833990
  38.8836470  53.7541810  10.3669850  46.1463120  54.4750410  13.2457950
  45.4561440  54.2822610  13.8804040  46.8895420  54.7585050  13.7782250
  36.8735120  52.3143900   4.2091290  36.5848170  52.8846760   4.9216270
  37.6180880  51.8348350   4.5722520  48.4226090  58.3148850   6.0811870
  47.6907210  58.8235660   6.4301970  48.0250430  57.4978830   5.7800650
  44.8603480  54.9903050   4.4864360  44.8639540  54.5493000   3.6368900
  45.7554600  55.3120380   4.5936180  40.7105860  54.8729540   3.4458570
  40.3705910  55.3504770   4.2025620  39.9483180  54.4194660   3.0859670
  48.8852000  53.7682530   5.4934810  48.9024740  54.2191180   6.3376660
  48.6367580  52.8688170   5.7068250  52.3122750  51.1814710  11.3321190
  52.6368520  50.4504370  11.8579170  52.3479260  50.8628350  10.4302180
  39.0114310  62.2028290  10.7521150  38.6269100  61.5621960  11.3504110
  39.3226500  62.9064410  11.3215880  45.1611450  59.0504830   6.2329770
  45.5281580  58.5763400   6.9791110  44.9716510  59.9246400   6.5738110
  38.0251940  53.7948520   2.3623240  37.7398860  53.4304190   3.2001860
  37.9630800  53.0628980   1.7486380  42.9510820  58.0913470   8.5513980
  42.6467890  58.9705450   8.7764340  43.9057280  58.1513260   8.5871420
  52.2380590  61.2939820   4.9407220  52.9579710  61.7895110   4.5503330
  52.0362410  60.6157710   4.2961090  47.6199390  61.3648880  10.8276220
  47.5536700  60.4444550  10.5733810  46.9904530  61.4624320  11.5420860
  41.5230010  61.9654840   2.7859640  42.0408680  61.1623100   2.7316530
  41.0714030  61.9033980   3.6276470  39.0074550  58.9316210   9.6985340
  38.6489490  59.5970060  10.2858680  38.7129110  58.0999760  10.0697960
  42.2087670  59.3900450  12.5824890  41.9087810  59.5357630  11.6852710
  42.9798910  58.8305740  12.4898280  47.5516120  64.1869450  10.5780020
  47.5660660  63.2550410  10.3598930  46.8441220  64.2729210  11.2169790
  53.7627330  60.8276790   9.9248600  53.0375520  61.4205570   9.7277990
  54.2902790  60.8200330   9.1261970  49.2926920  62.5536960   3.4232450
  49.6450740  61.9565090   2.7633820  48.4089250  62.2281190   3.5940700
  46.9850020  65.8287020   7.6720520  47.6292240  66.0346400   8.3493940
  47.3479460  65.0675420   7.2191370  48.2582100  63.8319370   6.3897970
  48.9004330  63.1312530   6.5030140  48.7831450  64.6117810   6.2094860
  50.0319720  64.6314270   9.5934030  50.3675960  65.2180960  10.2711950
  49.1120060  64.5006980   9.8231820  37.5823120  52.4209450  10.3757440
  36.8681640  52.6206370  10.9810050  38.0018160  51.6449020  10.7472240
  37.8695710  66.4089710  11.3623970  37.9786830  65.4684450  11.2219360
  37.2176270  66.6744460  10.7137700  45.8608300  64.6805600  12.7622090
  45.5405170  63.9614840  13.3067780  45.1866660  65.3560670  12.8358150
  49.0761900  54.9131760   8.1258890  49.4442720  54.0926970   8.4538460
  48.2160100  54.9733650   8.5414540  46.0363890  57.5671350   8.3496860
  46.5349140  58.0417170   9.0148710  46.1786840  56.6434870   8.5566890
  53.2430750  53.7839310   9.1925250  52.7404350  54.5244710   9.5319060
  54.0587410  54.1723310   8.8762040  51.5352760  59.0272490   2.6386610
  50.5942900  59.0422720   2.8134300  51.8496830  58.2408450   3.0846910
  53.5378340  66.1981340   4.3140870  53.6625760  67.0212510   4.7864680
  54.4043900  65.9872070   3.9665020  41.0095870  68.2912550   3.9858000
  41.7458350  67.7428010   4.2566570  41.3936790  69.1568560   3.8463990
  40.0154150  67.4758620  13.1743580  40.8166880  67.7970670  13.5878980
  39.5005970  67.1154200  13.8963490  48.8518780  63.5838490  13.1218990
  48.2456940  63.6070090  12.3814740  48.5472890  62.8521530  13.6586240
  50.2819150  67.3118780  11.7328400  51.2340900  67.2276800  11.6828640
  50.1347370  67.9760490  12.4062190  37.7351960  59.9632080  12.1179630
  38.2390980  59.3839360  12.6895860  36.9959380  60.2472310  12.6556000
  44.7889900  61.3703070  11.6515150  44.0235570  61.9388070  11.5669820
  44.9705860  61.0779280  10.7583380  51.9313250  63.1008400  12.2090170
  52.6722720  63.4384160  11.7057630  51.1685930  63.2700460  11.6559940
  39.7675040  58.1061670  13.0129700  39.8080380  57.8075540  13.9214930
  40.6220540  58.5069280  12.8537220  41.7080850  56.6853770  10.9804190
  41.1777310  56.1944720  10.3527530  42.3768920  57.1137970  10.4462120
  50.6058910  61.1523230  10.7445380  51.0199930  61.3068310  11.5935800
  49.6709910  61.2778450  10.9071160  51.0781080  58.4919390  12.7484530
  51.6601850  57.7371710  12.6605010  51.2542850  59.0226830  11.9716010
  42.1953150  53.6516140  11.0601480  42.1010020  53.0336890  10.3352350
  41.6150540  54.3782430  10.8331390  44.9614590  52.2089380   8.0928870
  44.5131890  52.2313640   7.2474420  44.3279790  51.8108400   8.6899170
  45.3674140  61.1043710   8.7141310  45.7862250  61.9476440   8.5417550
  44.4482770  61.2415750   8.4848090  47.7038040  58.8359890  10.0979150
  47.8234250  58.2401030  10.8373990  48.5632040  58.8729580   9.6780450
  50.0425940  59.3897080   8.6741660  49.5161160  59.9139700   8.0706800
  50.3857280  60.0224470   9.3051390  43.2181560  67.4096720   9.8299040
  42.6802650  68.1342780   9.5107740  43.4715520  66.9327060   9.0396380
  44.4706810  55.3781240  11.3554970  45.0606500  55.0697090  12.0432790
  43.6527050  54.9060990  11.5114870  49.2900240  54.9947050  11.5887990
  48.6015760  54.3328590  11.5237980  50.0106260  54.5485320  12.0336450
  46.0743770  68.6447930  10.0885690  46.0002470  69.5483070  10.3958060
  45.1722610  68.3259830  10.0607760  37.4771060  65.9722520   3.3919310
  37.8074070  65.1043580   3.1597950  37.9062060  66.1781040   4.2224270
  37.9661270  66.8393110   6.1300940  37.5292260  67.0193910   6.9625090
  38.5338950  67.5967730   5.9882660  53.6023450  66.3410110  10.4178250
  53.0025440  66.4002670   9.6742170  53.7317350  65.4015090  10.5475100
  37.7985700  59.3513340   2.4889820  37.1434540  59.0824980   1.8449520
  38.6363650  59.2417820   2.0391800  55.3041330  61.6825510   3.1024090
  55.6750160  60.8992830   2.6960060  55.9443260  62.3714610   2.9241390
  52.2875090  63.0662090   8.5154410  51.4734930  63.4959250   8.7780200
  52.6949290  63.6780500   7.9023460  38.8361630  59.7365910   7.0293160
  39.2034670  59.6493310   7.9089180  38.2672450  58.9732460   6.9300020
  53.6365490  58.2050290  10.0423630  53.4051580  57.9763040   9.1421580
  53.8970040  59.1249840   9.9968520  38.3877630  56.6475000  10.9351580
  37.4933680  56.6141760  11.2745290  38.9275180  56.8461790  11.7002830
  52.0753560  53.4306720  12.8203330  52.9523740  53.4390120  13.2037330
  52.0874400  52.6937560  12.2095680  53.5216830  57.2836260   3.7091350
  54.0454310  56.7898910   3.0781520  54.1076250  57.4186620   4.4538920
  53.7006550  57.3676130   7.2310900  52.7509260  57.3339670   7.3455890
  53.8819560  58.2776240   6.9960670  38.8917340  50.9223330   5.2834800
  39.5393530  50.3720710   4.8429960  39.3119180  51.1766480   6.1050610
  54.4403960  55.1770560   2.1821440  54.3303240  55.0226600   3.1203710
  55.2011550  54.6491500   1.9396850  52.7869680  51.1164690   8.6404440
  53.4241900  51.7298830   9.0063630  52.9344570  51.1525350   7.6953670
  38.6449340  51.0779000   8.0260120  38.2964160  51.5342820   8.7918300
  38.3137040  50.1836130   8.1082550  40.2513710  64.2498600  12.1913310
  40.2083340  63.8791510  13.0727770  40.3824720  65.1876170  12.3315130
  43.9519740  65.8058190   7.7923030  43.7111100  66.0732750   6.9053550
  44.8922380  65.9763920   7.8473890  46.1574160  52.2690880  11.5479540
  46.0963050  52.8612710  12.2974950  47.0974540  52.1616840  11.4029800
  48.7948720  51.9260940  11.1871830  49.4089130  52.2440230  10.5252910
  49.3398280  51.4409530  11.8067690  55.2123900  67.8252570   8.5933670
  54.7182180  68.2221440   7.8760800  54.6037190  67.2001780   8.9870950
  39.3169980  50.6055200  11.3010890  39.8652970  50.4243250  10.5377000
  39.3825290  49.8149310  11.8367200  40.0901740  67.1960850   9.3111090
  39.4962060  67.0645550  10.0501130  40.0825580  66.3598990   8.8453190
  49.5356760  50.4893080   7.5141120  48.6616600  50.8228190   7.3114050
  49.4267510  50.0166260   8.3392990  50.4428740  52.6963950   8.8982840
  50.1142100  51.8815710   8.5184570  51.3911040  52.6533760   8.7748530
  52.8963350  68.4675990   5.8720410  52.4366320  69.2191800   5.4978430
  52.2675810  67.7482460   5.8135210  39.7213970  64.5619230   8.2619130
  38.9948030  63.9424520   8.1945080  39.7823120  64.9559840   7.3917210
  43.3259070  66.7764230   5.0468540  43.8424090  66.1651590   4.5216800
  43.9756450  67.2793010   5.5379550  46.0654570  67.6672720   5.8737520
  46.3532380  67.4127020   4.9970530  46.5777790  67.1150080   6.4643090
  47.2831580  51.4062920   6.4534030  46.5003370  51.8808420   6.7330790
  46.9894510  50.5017750   6.3447210  51.8352650  52.1086020   4.4983120
  52.2760740  52.0531120   3.6504720  51.5660240  53.0244030   4.5693300
  53.6991220  51.7401260   2.5091940  53.6379620  50.7962480   2.3622960
  54.4783250  51.8481350   3.0545400  49.6710780  50.4892120   3.2033130
  50.2740150  51.0612330   3.6781650  48.9303770  51.0531560   2.9807030
  46.1326930  68.5888820  13.2405720  47.0594240  68.3533090  13.2841680
  46.1177360  69.4160820  12.7591750  43.3190540  51.2533570  13.0047600
  43.0374810  51.7567170  12.2408420  43.7010240  50.4555320  12.6389730
  49.9206000  50.6687150  13.5828070  49.8071450  50.9881760  14.4779590
  50.7375740  51.0699660  13.2865350  52.7004490  67.8158680  13.0646760
  53.4929810  67.3207910  12.8572720  52.9937640  68.4948820  13.6722370
  48.8264150  39.9136130  59.0436770  48.7458200  38.9990740  58.7728480
  48.4128570  40.4103200  58.3376480  46.9582190  41.6915150  60.9246040
  46.1824290  41.2115590  61.2144610  47.6095120  41.0120800  60.7502200
  40.9748020  42.0034960  61.8021800  40.1432900  41.7483670  62.2018310
  41.5829000  42.0745730  62.5379720  50.9789620  46.0975340  59.7045170
  50.5171150  45.3262580  60.0332340  51.7915170  46.1241410  60.2097620
  40.9549280  46.0375050  61.9979820  41.2577320  45.1472790  61.8190040
  41.6992870  46.5945270  61.7702070  39.3839970  36.9636850  55.5864190
  38.4956670  37.3052820  55.4844070  39.6681160  36.7637170  54.6945020
  37.3472980  39.5642500  61.4703890  37.9189090  38.7964700  61.4707530
  37.3474520  39.8631260  60.5610500  47.2052930  48.3833350  59.3249160
  46.5864370  48.8390850  58.7543600  48.0604710  48.5384810  58.9238860
  46.3991180  44.3672340  60.9316200  46.3299460  43.4262280  60.7705330
  47.1611040  44.4573750  61.5038770  47.4296350  37.1742720  61.1585130
  47.8061170  36.3014600  61.0458800  47.3315860  37.5101420  60.2675570
  41.5601360  35.5468350  56.6202570  41.6668110  36.4472080  56.9271330
  40.6493720  35.4986320  56.3297220  51.2120470  34.6693160  58.0913470
  52.0330090  34.1789730  58.1338950  51.2454550  35.2590820  58.8445310
  39.2084520  37.4687360  61.8655160  39.8894630  37.7325730  62.4842560
  38.8932570  36.6288230  62.1993170  43.4009090  38.5154720  60.9527750
  43.9087310  39.0135690  61.5932770  43.9322330  37.7389920  60.7767110
  48.0716280  43.2672590  56.7181070  47.4533550  43.7322040  56.1543790
  48.5839530  43.9600070  57.1350580  51.4481950  36.6093540  60.8641010
  50.7437520  36.8978430  61.4444120  51.8094110  37.4193650  60.5040570
  37.4399480  43.9529120  54.0920700  37.0627460  44.4416220  53.3605600
  37.6972550  44.6254400  54.7227230  53.0644730  46.2268670  63.1268490
  52.3808250  46.8967780  63.1185160  53.6039020  46.4249320  62.3613350
  54.5168870  36.0548330  61.2550220  53.5693780  36.0887310  61.3865650
  54.8418860  36.8687280  61.6399580  45.0488410  32.3545510  59.5506210
  45.3563390  31.7992400  58.8341710  44.1189110  32.4889970  59.3679200
  50.6003470  48.0712800  61.8413670  50.6130630  47.6675090  60.9735930
  50.0478690  48.8460090  61.7375100  51.8948890  44.7929020  56.9303840
  51.7845220  43.8503350  57.0553260  51.8917140  45.1544660  57.8166600
  47.4369170  40.4194340  56.2866330  46.5098450  40.3531720  56.5154800
  47.5893990  41.3574470  56.1721570  47.4238250  36.6911340  53.2833490
  46.4841920  36.8525300  53.3685950  47.7421510  37.4097020  52.7369480
  53.9451010  41.3729860  63.2612520  53.1169640  41.4422950  62.7862650
  54.5401490  41.9584170  62.7928350  51.4666460  41.9814640  56.7901580
  50.8478880  41.6434190  56.1427880  51.4490910  41.3374400  57.4980770
  43.0425810  40.9459080  59.0686060  42.6382810  40.2336330  58.5731960
  43.1288930  40.6012320  59.9574100  43.5107510  44.6326640  61.2325270
  43.2135800  44.0272110  60.5533050  44.4607330  44.6703950  61.1214630
  49.6431160  41.2201450  53.7974330  50.0824440  40.3823880  53.6512150
  50.3559580  41.8530850  53.8838470  47.7526540  46.1597520  57.7655570
  48.1922450  46.9021850  57.3510960  47.6913430  46.4024090  58.6894530
  53.2248300  32.4744260  52.1115370  52.9120960  32.5671090  53.0114440
  53.9860770  33.0525290  52.0612800  39.7430440  39.8404060  56.5692710
  39.6228040  40.5666150  55.9573980  39.4331330  39.0706970  56.0920620
  37.3815810  43.0119200  62.3761350  37.4596230  43.1467970  61.4317070
  37.9957490  42.3035090  62.5689470  38.6263440  44.7119390  58.7867530
  38.2191520  44.8533980  57.9321130  39.5176450  44.4279550  58.5838740
  50.4196720  49.1466640  55.1218580  50.2597860  48.8569580  56.0200410
  50.2543430  48.3706770  54.5863810  42.8985100  48.9265170  56.8990200
  42.7227580  48.0100710  56.6858000  42.0440840  49.2852460  57.1388000
  50.1222850  46.6554200  53.6816580  49.4288010  46.6531490  53.0218860
  50.8645710  46.2313520  53.2510750  49.6872780  48.2816910  57.7565070
  50.1429730  47.5006290  58.0703690  50.0265300  48.9923730  58.3006250
  42.2094100  33.1839130  59.9516380  41.7662250  33.9648670  59.6200900
  42.7679090  33.5069020  60.6587320  45.3252920  32.8049830  54.8322210
  44.7007100  32.8009700  55.5575520  45.2383040  31.9380790  54.4358180
  44.2470000  33.7286460  61.8105980  44.5442330  34.6349290  61.7298000
  44.7955560  33.2405240  61.1965550  42.0008320  38.3072700  57.6797630
  41.7749240  38.0909870  58.5844250  41.2200850  38.7401160  57.3343600
  49.2306080  38.3136070  56.2788280  48.6314970  39.0371870  56.0951900
  49.7785690  38.2512850  55.4964730  47.8370950  36.9499610  58.3091560
  48.2300520  37.2671810  57.4960250  48.1987800  36.0711490  58.4236080
  36.8735120  33.5400410  60.5321760  36.5848170  34.1103270  61.2446740
  37.6180880  33.0604860  60.8952990  37.0605350  37.4820530  51.7424480
  36.9780020  38.4251290  51.8839470  36.7088410  37.3395440  50.8636830
  48.4226090  39.5405360  62.4042340  47.6907210  40.0492170  62.7532440
  48.0250430  38.7235340  62.1031120  44.8603480  36.2159560  60.8094830
  44.8639540  35.7749510  59.9599370  45.7554600  36.5376890  60.9166650
  40.7105860  36.0986050  59.7689040  40.3705910  36.5761280  60.5256090
  39.9483180  35.6451170  59.4090140  44.9223630  37.2171640  53.8001590
  45.0436450  37.1758120  54.7487410  44.5372140  38.0795790  53.6448320
  48.8852000  34.9939040  61.8165280  48.9024740  35.4447690  62.6607130
  48.6367580  34.0944680  62.0298720  43.9345130  39.5272780  53.1984890
  43.3662030  39.0791030  52.5720800  44.6434130  39.8865560  52.6650040
  38.0251940  35.0205030  58.6853710  37.7398860  34.6560700  59.5232330
  37.9630800  34.2885490  58.0716850  41.4792610  43.5230970  55.4711300
  40.7054870  42.9828590  55.3110020  42.2087240  43.0037580  55.1329060
  52.2380590  42.5196330  61.2637690  52.9579710  43.0151620  60.8733800
  52.0362410  41.8414220  60.6191560  47.6990530  33.9134290  55.4067080
  46.8855140  33.4147460  55.3312390  47.5052480  34.7532540  54.9903430
  50.4138920  38.2853940  53.7029240  51.3018540  38.5971170  53.5280580
  50.3844010  37.4126190  53.3109820  41.5230010  43.1911350  59.1090110
  42.0408680  42.3879610  59.0547000  41.0714030  43.1290490  59.9506940
  46.4099510  44.4577630  54.3817410  46.7515210  45.2019860  53.8860730
  45.5812220  44.7708750  54.7442240  52.6853190  39.5965780  53.1709100
  52.6016910  40.0280000  52.3205540  53.4047380  40.0564130  53.6035920
  53.7140440  46.4508040  55.8991230  53.0716600  45.7963660  56.1734950
  53.3271100  46.8563130  55.1231900  49.2926920  43.7793470  59.7462920
  49.6450740  43.1821600  59.0864290  48.4089250  43.4537700  59.9171170
  45.3790200  44.5391160  57.1533330  46.0661330  45.0860370  57.5340920
  44.5922620  45.0831890  57.1882940  37.5182600  40.1563980  52.6450410
  38.3877450  40.4388780  52.9286330  37.0272920  40.9699850  52.5299220
  44.6817410  41.5437190  56.7658690  45.1380190  42.3542440  56.9918880
  44.3305620  41.2260330  57.5977180  40.5829190  31.8874840  57.2381210
  40.4543820  31.8792740  58.1866130  39.7591210  32.2257930  56.8872220
  48.2582100  45.0575880  62.7128440  48.9004330  44.3569040  62.8260610
  48.7831450  45.8374320  62.5325330  52.1037820  45.3424500  52.4367580
  51.8775400  44.6254940  53.0292220  51.7134020  45.0936940  51.5989330
  37.8853850  49.3691360  53.2112040  38.2451490  49.9680700  52.5569310
  37.7446190  49.9151250  53.9847070  51.6854070  43.2596440  54.0981740
  51.3975770  43.7209130  54.8859620  52.4806240  42.7994210  54.3665960
  43.9022470  46.7522560  54.0285710  43.8932570  47.4852250  53.4130220
  42.9820830  46.5054140  54.1212670  39.5029110  41.9737450  54.7732470
  38.8957060  42.7136350  54.7827770  39.9778460  42.0636810  53.9470670
  52.4423930  35.0945210  55.2576920  51.8137090  35.1990880  54.5435150
  51.9475850  35.3141990  56.0470800  46.8882070  46.8150800  52.6910900
  46.9894050  46.6114790  51.7612880  45.9883810  46.5609080  52.8958680
  44.4107960  37.3731160  56.6734800  43.7024110  37.8417500  57.1148410
  44.6952440  36.7153170  57.3079990  48.4423390  34.0981820  58.1130590
  48.3191170  34.1167950  57.1640100  49.3907950  34.1460760  58.2328990
  45.5300180  49.3337120  57.3858570  45.7841680  49.2958510  56.4637940
  44.5812660  49.2070450  57.3786820  42.6142980  35.6816240  54.0485510
  43.4633510  36.1186390  53.9825700  42.2474250  35.9936500  54.8757570
  51.5352760  40.2529000  58.9617080  50.5942900  40.2679230  59.1364770
  51.8496830  39.4664960  59.4077380  41.5134400  41.9348600  52.5221040
  42.2797670  41.8229960  53.0846470  41.5909090  41.2386570  51.8697810
  40.2081160  39.3673670  53.2053930  40.2884750  38.4201180  53.3171330
  41.1000910  39.6980550  53.3114590  53.5378340  47.4237850  60.6371340
  53.6625760  48.2469020  61.1095150  54.4043900  47.2128580  60.2895490
  41.0095870  49.5169060  60.3088470  41.7458350  48.9684520  60.5797040
  41.3936790  50.3825070  60.1694460  37.8941350  45.5842630  56.1829980
  36.9681130  45.8263770  56.1735390  38.3597780  46.4116890  56.0614730
  44.1198180  48.6899370  52.1314040  44.9126790  48.9788200  51.6795830
  43.6002530  48.2591540  51.4526520  53.1728350  47.9169500  53.5550780
  52.8869860  47.5034640  52.7404960  52.9747900  48.8457210  53.4351300
  44.6375580  43.9102780  51.9956390  44.5326220  43.2955130  52.7217770
  44.4699800  43.3868670  51.2119400  47.8778310  42.9722810  52.5998380
  47.3288410  43.4192110  53.2441120  48.4997570  42.4672060  53.1236050
  43.5453430  41.9313730  54.4963680  43.9669850  41.7653600  55.3395070
  43.6704270  41.1213960  54.0018820  46.0581070  40.9551340  51.7440780
  46.5786730  40.2400360  51.3781930  46.7049470  41.5937210  52.0441290
  42.4412330  38.0046960  51.4421840  42.2401390  37.1414320  51.8035180
  42.2704380  37.9180320  50.5043440  49.9200640  32.8155190  53.9708720
  50.2002930  31.9723090  54.3268140  49.1466370  33.0478300  54.4847470
  41.2395130  35.1047580  51.4299720  41.5421030  35.1115010  50.5218870
  41.9789720  34.7545440  51.9267380  44.4580060  34.0482200  52.4155920
  44.1102060  33.3706190  51.8358370  44.6592830  33.5871710  53.2299310
  46.6229100  49.0362950  54.0342520  47.5179890  49.3747920  54.0561280
  46.6546730  48.3142360  53.4066800  40.2625260  44.4090000  52.2629520
  40.7000130  44.9519670  52.9187100  40.7472990  43.5836950  52.2725860
  37.4771060  47.1979030  59.7149780  37.8074070  46.3300090  59.4828420
  37.9062060  47.4037550  60.5454740  42.0732980  45.5288040  57.3751750
  41.7728520  45.4053010  58.2755660  41.9670470  44.6696630  56.9667480
  54.8424900  45.3084440  52.0778430  54.0117860  45.3761090  52.5485660
  55.0196730  46.1988560  51.7745290  54.2981360  42.0531920  54.5812630
  55.0600270  42.6228570  54.6872320  54.3135730  41.4859120  55.3520940
  37.7985700  40.5769850  58.8120290  37.1434540  40.3081490  58.1679990
  38.6363650  40.4674330  58.3622270  55.3041330  42.9082020  59.4254560
  55.6750160  42.1249340  59.0190530  55.9443260  43.5971120  59.2471860
  54.3500530  42.3466290  51.7385150  54.6249370  43.2545170  51.6104370
  54.1611270  42.2828820  52.6747140  50.7476140  35.3711140  53.0338780
  51.1661020  35.1842120  52.1935440  50.4412200  34.5190190  53.3441710
  54.2465870  40.2835280  56.7314580  53.8709470  39.5163210  56.2995870
  53.5168990  40.6657980  57.2189510  37.0123780  37.7868780  54.7545620
  36.1087860  38.0498980  54.5797280  37.4964400  38.0579950  53.9745580
  53.5216830  38.5092770  60.0321820  54.0454310  38.0155420  59.4011990
  54.1076250  38.6443130  60.7769390  39.5550990  36.8434320  52.6640000
  40.2642690  36.4217540  52.1787280  38.8390930  36.9109550  52.0323350
  39.2025150  32.8973650  51.7042650  39.9253280  33.4382590  52.0223870
  39.4749670  32.6237070  50.8284190  53.0116800  37.7666120  55.9714230
  53.5075920  37.5336990  56.7563110  52.8132870  36.9277960  55.5551870
  38.8917340  32.1479840  61.6065270  39.5393530  31.5977220  61.1660430
  39.3119180  32.4022990  62.4281080  54.4403960  36.4027070  58.5051910
  54.3303240  36.2483110  59.4434180  55.2011550  35.8748010  58.2627320
  55.3294230  34.2334990  51.7458050  56.2543540  34.1016170  51.5376340
  55.3070020  34.3127810  52.6994500  55.4032720  35.0045650  54.3714760
  54.6084220  34.9390770  54.9007670  55.6076000  35.9396290  54.3600110
  52.3451140  49.0437200  58.3653150  52.9410210  48.7221770  57.6887570
  52.6029290  48.5709020  59.1566420  52.8963350  49.6932500  62.1950880
  52.4366320  50.4448310  61.8208900  52.2675810  48.9738970  62.1365680
  43.3259070  48.0020740  61.3699010  43.8424090  47.3908100  60.8447270
  43.9756450  48.5049520  61.8610020  46.0654570  48.8929230  62.1967990
  46.3532380  48.6383530  61.3201000  46.5777790  48.3406590  62.7873560
  47.2831580  32.6319430  62.7764500  46.5003370  33.1064930  63.0561260
  46.9894510  31.7274260  62.6677680  51.8352650  33.3342530  60.8213590
  52.2760740  33.2787630  59.9735190  51.5660240  34.2500540  60.8923770
  53.6991220  32.9657770  58.8322410  53.6379620  32.0218990  58.6853430
  54.4783250  33.0737860  59.3775870  38.0043970  49.1050130  57.7946360
  37.8366010  48.4720810  58.4928250  37.1378480  49.3109530  57.4440550
  38.6271990  32.9366910  55.2978220  39.3851350  33.0495790  54.7242250
  38.1649160  33.7736110  55.2521650  45.1685800  35.0506180  58.2880530
  44.3560310  34.6763070  57.9476410  45.6727440  34.2951260  58.5901720
  49.6710780  31.7148630  59.5263600  50.2740150  32.2868840  60.0012120
  48.9303770  32.2788070  59.3037500  52.8145380  32.1170190  54.8003880
  53.0096010  33.0153640  55.0671310  52.0275250  31.8857270  55.2936830
  39.6106670  47.7983360  55.2396500  39.0854290  48.1791390  54.5358460
  39.5351250  48.4234130  55.9606210  40.9997140  33.4630960  53.8380190
  41.5289900  32.6760760  53.7088140  41.6325460  34.1422150  54.0715720
  43.1934980  33.2006100  56.8925580  42.5637720  32.4993410  57.0595710
  42.6540120  33.9610230  56.6758740  54.3671990  49.3570900  56.5610440
  54.5424180  48.6708640  55.9171360  53.6693560  49.8817950  56.1687110
  42.2099640  49.7465740  54.1145750  42.9418460  49.4625020  53.5669640
  42.4693310  49.5079020  55.0045130  41.3714430  45.8630470  54.1192080
  40.7423310  46.3315570  54.6677910  41.4862260  45.0179690  54.5538270
  55.5020020  36.6859910  45.8813610  54.7972190  37.0741620  45.3628720
  55.7677940  37.3810200  46.4834540  51.4481950  36.6093540  42.0897520
  50.7437520  36.8978430  42.6700630  51.8094110  37.4193650  41.7297080
  54.5168870  36.0548330  42.4806730  53.5693780  36.0887310  42.6122160
  54.8418860  36.8687280  42.8656090  42.6025940  44.3708330  49.1089580
  41.7054470  44.5948300  49.3562980  42.6278810  44.4943270  48.1600980
  43.2277510  47.1843350  49.8932100  43.1992940  47.5886300  49.0260530
  43.0642480  46.2553710  49.7303700  55.1792330  47.9670450  51.1896270
  55.6552050  48.4453340  51.8685350  55.7999490  47.8987940  50.4641770
  54.5825580  45.1583300  48.3496280  54.7088640  44.9195180  47.4313460
  54.6246960  44.3267840  48.8218360  54.4349590  37.2115760  49.3146020
  53.8193860  37.7195430  48.7861480  54.1146010  36.3114090  49.2571960
  51.4968420  37.2716600  47.9104870  50.6462010  36.9722350  48.2313940
  51.3370210  37.5158610  46.9988690  48.5918130  38.7718350  50.0103660
  48.9171540  37.9382100  49.6705890  49.3798460  39.2946870  50.1581990
  39.5718070  35.6171950  47.7248190  39.1781460  36.4647160  47.9320970
  38.8836470  34.9798320  47.9156830  46.1463120  35.7006920  50.7944930
  45.4561440  35.5079120  51.4291020  46.8895420  35.9841560  51.3269230
  52.3122750  32.4071220  48.8808170  52.6368520  31.6760880  49.4066150
  52.3479260  32.0884860  47.9789160  47.6199390  42.5905390  48.3763200
  47.5536700  41.6701060  48.1220790  46.9904530  42.6880830  49.0907840
  53.7627330  42.0533300  47.4735580  53.0375520  42.6462080  47.2764970
  54.2902790  42.0456840  46.6748950  37.5823120  33.6465960  47.9244420
  36.8681640  33.8462880  48.5297030  38.0018160  32.8705530  48.2959220
  37.8695710  47.6346220  48.9110950  37.9786830  46.6940960  48.7706340
  37.2176270  47.9000970  48.2624680  45.8608300  45.9062110  50.3109070
  45.5405170  45.1871350  50.8554760  45.1866660  46.5817180  50.3845130
  53.2430750  35.0095820  46.7412230  52.7404350  35.7501220  47.0806040
  54.0587410  35.3979820  46.4249020  40.0154150  48.7015130  50.7230560
  40.8166880  49.0227180  51.1365960  39.5005970  48.3410710  51.4450470
  48.8518780  44.8095000  50.6705970  48.2456940  44.8326600  49.9301720
  48.5472890  44.0778040  51.2073220  51.9313250  44.3264910  49.7577150
  52.6722720  44.6640670  49.2544610  51.1685930  44.4956970  49.2046920
  51.0781080  39.7175900  50.2971510  51.6601850  38.9628220  50.2091990
  51.2542850  40.2483340  49.5202990  49.2900240  36.2203560  49.1374970
  48.6015760  35.5585100  49.0724960  50.0106260  35.7741830  49.5823430
  53.6365490  39.4306800  47.5910610  53.4051580  39.2019550  46.6908560
  53.8970040  40.3506350  47.5455500  52.0753560  34.6563230  50.3690310
  52.9523740  34.6646630  50.7524310  52.0874400  33.9194070  49.7582660
  54.4403960  36.4027070  39.7308420  54.3303240  36.2483110  40.6690690
  55.2011550  35.8748010  39.4883830  52.7869680  32.3421200  46.1891420
  53.4241900  32.9555340  46.5550610  52.9344570  32.3781860  45.2440650
  40.2513710  45.4755110  49.7400290  40.2083340  45.1048020  50.6214750
  40.3824720  46.4132680  49.8802110  46.1574160  33.4947390  49.0966520
  46.0963050  34.0869220  49.8461930  47.0974540  33.3873350  48.9516780
  48.7948720  33.1517450  48.7358810  49.4089130  33.4696740  48.0739890
  49.3398280  32.6666040  49.3554670  39.3169980  31.8311710  48.8497870
  39.8652970  31.6499760  48.0863980  39.3825290  31.0405820  49.3854180
  50.4428740  33.9220460  46.4469820  50.1142100  33.1072220  46.0671550
  51.3911040  33.8790270  46.3235510  46.1326930  49.8145330  50.7892700
  47.0594240  49.5789600  50.8328660  46.1177360  50.6417330  50.3078730
  43.3190540  32.4790080  50.5534580  43.0374810  32.9823680  49.7895400
  43.7010240  31.6811830  50.1876710  49.9206000  31.8943660  51.1315050
  49.8071450  32.2138270  52.0266570  50.7375740  32.2956170  50.8352330
  52.7004490  49.0415190  50.6133740  53.4929810  48.5464420  50.4059700
  52.9937640  49.7205330  51.2209350  51.8948890  44.7929020  19.3816860
  51.7845220  43.8503350  19.5066280  51.8917140  45.1544660  20.2679620
  47.4369170  40.4194340  18.7379350  46.5098450  40.3531720  18.9667820
  47.5893990  41.3574470  18.6234590  47.4238250  36.6911340  15.7346510
  46.4841920  36.8525300  15.8198970  47.7421510  37.4097020  15.1882500
  53.9451010  41.3729860  25.7125540  53.1169640  41.4422950  25.2375670
  54.5401490  41.9584170  25.2441370  51.4666460  41.9814640  19.2414600
  50.8478880  41.6434190  18.5940900  51.4490910  41.3374400  19.9493790
  49.6431160  41.2201450  16.2487350  50.0824440  40.3823880  16.1025170
  50.3559580  41.8530850  16.3351490  53.2248300  32.4744260  14.5628390
  52.9120960  32.5671090  15.4627460  53.9860770  33.0525290  14.5125820
  50.4196720  49.1466640  17.5731600  50.2597860  48.8569580  18.4713430
  50.2543430  48.3706770  17.0376830  50.1222850  46.6554200  16.1329600
  49.4288010  46.6531490  15.4731880  50.8645710  46.2313520  15.7023770
  49.2306080  38.3136070  18.7301300  48.6314970  39.0371870  18.5464920
  49.7785690  38.2512850  17.9477750  44.9223630  37.2171640  16.2514610
  45.0436450  37.1758120  17.2000430  44.5372140  38.0795790  16.0961340
  43.9345130  39.5272780  15.6497910  43.3662030  39.0791030  15.0233820
  44.6434130  39.8865560  15.1163060  50.4138920  38.2853940  16.1542260
  51.3018540  38.5971170  15.9793600  50.3844010  37.4126190  15.7622840
  52.6853190  39.5965780  15.6222120  52.6016910  40.0280000  14.7718560
  53.4047380  40.0564130  16.0548940  53.7140440  46.4508040  18.3504250
  53.0716600  45.7963660  18.6247970  53.3271100  46.8563130  17.5744920
  52.1037820  45.3424500  14.8880600  51.8775400  44.6254940  15.4805240
  51.7134020  45.0936940  14.0502350  37.8853850  49.3691360  15.6625060
  38.2451490  49.9680700  15.0082330  37.7446190  49.9151250  16.4360090
  51.6854070  43.2596440  16.5494760  51.3975770  43.7209130  17.3372640
  52.4806240  42.7994210  16.8178980  52.4423930  35.0945210  17.7089940
  51.8137090  35.1990880  16.9948170  51.9475850  35.3141990  18.4983820
  46.8882070  46.8150800  15.1423920  46.9894050  46.6114790  14.2125900
  45.9883810  46.5609080  15.3471700  51.5352760  40.2529000  21.4130100
  50.5942900  40.2679230  21.5877790  51.8496830  39.4664960  21.8590400
  44.1198180  48.6899370  14.5827060  44.9126790  48.9788200  14.1308850
  43.6002530  48.2591540  13.9039540  53.1728350  47.9169500  16.0063800
  52.8869860  47.5034640  15.1917980  52.9747900  48.8457210  15.8864320
  44.6375580  43.9102780  14.4469410  44.5326220  43.2955130  15.1730790
  44.4699800  43.3868670  13.6632420  47.8778310  42.9722810  15.0511400
  47.3288410  43.4192110  15.6954140  48.4997570  42.4672060  15.5749070
  46.0581070  40.9551340  14.1953800  46.5786730  40.2400360  13.8294950
  46.7049470  41.5937210  14.4954310  42.4412330  38.0046960  13.8934860
  42.2401390  37.1414320  14.2548200  42.2704380  37.9180320  12.9556460
  49.9200640  32.8155190  16.4221740  50.2002930  31.9723090  16.7781160
  49.1466370  33.0478300  16.9360490  46.6229100  49.0362950  16.4855540
  47.5179890  49.3747920  16.5074300  46.6546730  48.3142360  15.8579820
  54.8424900  45.3084440  14.5291450  54.0117860  45.3761090  14.9998680
  55.0196730  46.1988560  14.2258310  54.2981360  42.0531920  17.0325650
  55.0600270  42.6228570  17.1385340  54.3135730  41.4859120  17.8033960
  55.3041330  42.9082020  21.8767580  55.6750160  42.1249340  21.4703550
  55.9443260  43.5971120  21.6984880  54.3500530  42.3466290  14.1898170
  54.6249370  43.2545170  14.0617390  54.1611270  42.2828820  15.1260160
  50.7476140  35.3711140  15.4851800  51.1661020  35.1842120  14.6448460
  50.4412200  34.5190190  15.7954730  54.2465870  40.2835280  19.1827600
  53.8709470  39.5163210  18.7508890  53.5168990  40.6657980  19.6702530
  53.5216830  38.5092770  22.4834840  54.0454310  38.0155420  21.8525010
  54.1076250  38.6443130  23.2282410  53.0116800  37.7666120  18.4227250
  53.5075920  37.5336990  19.2076130  52.8132870  36.9277960  18.0064890
  54.4403960  36.4027070  20.9564930  54.3303240  36.2483110  21.8947200
  55.2011550  35.8748010  20.7140340  55.3294230  34.2334990  14.1971070
  56.2543540  34.1016170  13.9889360  55.3070020  34.3127810  15.1507520
  55.4032720  35.0045650  16.8227780  54.6084220  34.9390770  17.3520690
  55.6076000  35.9396290  16.8113130  52.8145380  32.1170190  17.2516900
  53.0096010  33.0153640  17.5184330  52.0275250  31.8857270  17.7449850
  42.2099640  49.7465740  16.5658770  42.9418460  49.4625020  16.0182660
  42.4693310  49.5079020  17.4558150  48.8264150  39.9136130   2.7206300
  48.7458200  38.9990740   2.4498010  48.4128570  40.4103200   2.0146010
  46.9582190  41.6915150   4.6015570  46.1824290  41.2115590   4.8914140
  47.6095120  41.0120800   4.4271730  40.9748020  42.0034960   5.4791330
  40.1432900  41.7483670   5.8787840  41.5829000  42.0745730   6.2149250
  50.9789620  46.0975340   3.3814700  50.5171150  45.3262580   3.7101870
  51.7915170  46.1241410   3.8867150  40.9549280  46.0375050   5.6749350
  41.2577320  45.1472790   5.4959570  41.6992870  46.5945270   5.4471600
  37.3472980  39.5642500   5.1473420  37.9189090  38.7964700   5.1477060
  37.3474520  39.8631260   4.2380030  47.2052930  48.3833350   3.0018690
  46.5864370  48.8390850   2.4313130  48.0604710  48.5384810   2.6008390
  46.3991180  44.3672340   4.6085730  46.3299460  43.4262280   4.4474860
  47.1611040  44.4573750   5.1808300  38.5897850  34.9726860   6.9342350
  38.4100690  34.0752610   7.2145110  38.1877930  35.5198730   7.6089300
  47.4296350  37.1742720   4.8354660  47.8061170  36.3014600   4.7228330
  47.3315860  37.5101420   3.9445100  51.2120470  34.6693160   1.7683000
  52.0330090  34.1789730   1.8108480  51.2454550  35.2590820   2.5214840
  39.2084520  37.4687360   5.5424690  39.8894630  37.7325730   6.1612090
  38.8932570  36.6288230   5.8762700  43.4009090  38.5154720   4.6297280
  43.9087310  39.0135690   5.2702300  43.9322330  37.7389920   4.4536640
  55.5020020  36.6859910   8.3326630  54.7972190  37.0741620   7.8141740
  55.7677940  37.3810200   8.9347560  41.6845190  33.1553280   8.8960700
  41.6863630  33.6725670   8.0906600  40.8549500  32.6783460   8.8730630
  42.9348040  42.7948460   7.0734200  42.6017420  43.4217380   7.7155270
  43.1114720  43.3210340   6.2935870  51.4481950  36.6093540   4.5410540
  50.7437520  36.8978430   5.1213650  51.8094110  37.4193650   4.1810100
  41.3660520  34.8663240   6.9031150  41.7077330  35.7105290   6.6085020
  40.4276330  35.0146980   7.0196490  42.1467140  44.7629260   8.8883380
  42.7641140  45.4380340   8.6067830  41.2860260  45.1717240   8.7970880
  53.0644730  46.2268670   6.8038020  52.3808250  46.8967780   6.7954690
  53.6039020  46.4249320   6.0382880  54.5168870  36.0548330   4.9319750
  53.5693780  36.0887310   5.0635180  54.8418860  36.8687280   5.3169110
  45.0488410  32.3545510   3.2275740  45.3563390  31.7992400   2.5111240
  44.1189110  32.4889970   3.0448730  50.6003470  48.0712800   5.5183200
  50.6130630  47.6675090   4.6505460  50.0478690  48.8460090   5.4144630
  49.9988910  42.9742640   6.8465810  50.4157700  42.7602750   6.0119270
  50.7228730  43.2315430   7.4174430  53.9451010  41.3729860   6.9382050
  53.1169640  41.4422950   6.4632180  54.5401490  41.9584170   6.4697880
  50.9093020  38.1599180   7.8836920  50.4964200  38.9852890   8.1376910
  50.1768970  37.5744220   7.6913280  43.0425810  40.9459080   2.7455590
  42.6382810  40.2336330   2.2501490  43.1288930  40.6012320   3.6343630
  43.5107510  44.6326640   4.9094800  43.2135800  44.0272110   4.2302580
  44.4607330  44.6703950   4.7984160  41.7554430  37.7202290   6.5254630
  42.3069020  37.8297630   5.7507880  42.2697940  38.0939890   7.2409860
  51.5993120  48.2058510   8.5717900  51.1223680  49.0130700   8.3790510
  50.9154910  47.5536840   8.7244110  42.6025940  44.3708330  11.5602600
  41.7054470  44.5948300  11.8076000  42.6278810  44.4943270  10.6114000
  41.4297160  41.2421650  10.1359970  41.2904930  42.1144450  10.5047370
  40.5478520  40.8994460   9.9907910  43.2277510  47.1843350  12.3445120
  43.1992940  47.5886300  11.4773550  43.0642480  46.2553710  12.1816720
  55.1792330  47.9670450  13.6409290  55.6552050  48.4453340  14.3198370
  55.7999490  47.8987940  12.9154790  37.3815810  43.0119200   6.0530880
  37.4596230  43.1467970   5.1086600  37.9957490  42.3035090   6.2459000
  54.5825580  45.1583300  10.8009300  54.7088640  44.9195180   9.8826480
  54.6246960  44.3267840  11.2731380  48.4442320  48.8611300   9.3704110
  48.9586990  48.7719310  10.1726540  47.6011400  49.2071000   9.6632020
  54.4349590  37.2115760  11.7659040  53.8193860  37.7195430  11.2374500
  54.1146010  36.3114090  11.7084980  37.4375330  44.0533370   8.5925340
  37.6006370  43.5838730   7.7744710  37.9027780  43.5456930   9.2574180
  42.2094100  33.1839130   3.6285910  41.7662250  33.9648670   3.2970430
  42.7679090  33.5069020   4.3356850  46.4963910  36.0507650   9.2321230
  46.0343280  36.2590670  10.0441170  46.0942020  35.2367000   8.9291900
  51.4968420  37.2716600  10.3617890  50.6462010  36.9722350  10.6826960
  51.3370210  37.5158610   9.4501710  48.5918130  38.7718350  12.4616680
  48.9171540  37.9382100  12.1218910  49.3798460  39.2946870  12.6095010
  44.2470000  33.7286460   5.4875510  44.5442330  34.6349290   5.4067530
  44.7955560  33.2405240   4.8735080  44.4407530  39.2058280  12.0227430
  44.3451130  38.2653010  11.8727830  45.2839510  39.4273350  11.6275500
  39.5718070  35.6171950  10.1761210  39.1781460  36.4647160  10.3833990
  38.8836470  34.9798320  10.3669850  46.1463120  35.7006920  13.2457950
  45.4561440  35.5079120  13.8804040  46.8895420  35.9841560  13.7782250
  36.8735120  33.5400410   4.2091290  36.5848170  34.1103270   4.9216270
  37.6180880  33.0604860   4.5722520  48.4226090  39.5405360   6.0811870
  47.6907210  40.0492170   6.4301970  48.0250430  38.7235340   5.7800650
  44.8603480  36.2159560   4.4864360  44.8639540  35.7749510   3.6368900
  45.7554600  36.5376890   4.5936180  40.7105860  36.0986050   3.4458570
  40.3705910  36.5761280   4.2025620  39.9483180  35.6451170   3.0859670
  48.8852000  34.9939040   5.4934810  48.9024740  35.4447690   6.3376660
  48.6367580  34.0944680   5.7068250  52.3122750  32.4071220  11.3321190
  52.6368520  31.6760880  11.8579170  52.3479260  32.0884860  10.4302180
  39.0114310  43.4284800  10.7521150  38.6269100  42.7878470  11.3504110
  39.3226500  44.1320920  11.3215880  45.1611450  40.2761340   6.2329770
  45.5281580  39.8019910   6.9791110  44.9716510  41.1502910   6.5738110
  38.0251940  35.0205030   2.3623240  37.7398860  34.6560700   3.2001860
  37.9630800  34.2885490   1.7486380  42.9510820  39.3169980   8.5513980
  42.6467890  40.1961960   8.7764340  43.9057280  39.3769770   8.5871420
  52.2380590  42.5196330   4.9407220  52.9579710  43.0151620   4.5503330
  52.0362410  41.8414220   4.2961090  47.6199390  42.5905390  10.8276220
  47.5536700  41.6701060  10.5733810  46.9904530  42.6880830  11.5420860
  41.5230010  43.1911350   2.7859640  42.0408680  42.3879610   2.7316530
  41.0714030  43.1290490   3.6276470  39.0074550  40.1572720   9.6985340
  38.6489490  40.8226570  10.2858680  38.7129110  39.3256270  10.0697960
  42.2087670  40.6156960  12.5824890  41.9087810  40.7614140  11.6852710
  42.9798910  40.0562250  12.4898280  47.5516120  45.4125960  10.5780020
  47.5660660  44.4806920  10.3598930  46.8441220  45.4985720  11.2169790
  53.7627330  42.0533300   9.9248600  53.0375520  42.6462080   9.7277990
  54.2902790  42.0456840   9.1261970  49.2926920  43.7793470   3.4232450
  49.6450740  43.1821600   2.7633820  48.4089250  43.4537700   3.5940700
  46.9850020  47.0543530   7.6720520  47.6292240  47.2602910   8.3493940
  47.3479460  46.2931930   7.2191370  48.2582100  45.0575880   6.3897970
  48.9004330  44.3569040   6.5030140  48.7831450  45.8374320   6.2094860
  50.0319720  45.8570780   9.5934030  50.3675960  46.4437470  10.2711950
  49.1120060  45.7263490   9.8231820  37.5823120  33.6465960  10.3757440
  36.8681640  33.8462880  10.9810050  38.0018160  32.8705530  10.7472240
  37.8695710  47.6346220  11.3623970  37.9786830  46.6940960  11.2219360
  37.2176270  47.9000970  10.7137700  45.8608300  45.9062110  12.7622090
  45.5405170  45.1871350  13.3067780  45.1866660  46.5817180  12.8358150
  49.0761900  36.1388270   8.1258890  49.4442720  35.3183480   8.4538460
  48.2160100  36.1990160   8.5414540  46.0363890  38.7927860   8.3496860
  46.5349140  39.2673680   9.0148710  46.1786840  37.8691380   8.5566890
  53.2430750  35.0095820   9.1925250  52.7404350  35.7501220   9.5319060
  54.0587410  35.3979820   8.8762040  51.5352760  40.2529000   2.6386610
  50.5942900  40.2679230   2.8134300  51.8496830  39.4664960   3.0846910
  53.5378340  47.4237850   4.3140870  53.6625760  48.2469020   4.7864680
  54.4043900  47.2128580   3.9665020  41.0095870  49.5169060   3.9858000
  41.7458350  48.9684520   4.2566570  41.3936790  50.3825070   3.8463990
  40.0154150  48.7015130  13.1743580  40.8166880  49.0227180  13.5878980
  39.5005970  48.3410710  13.8963490  48.8518780  44.8095000  13.1218990
  48.2456940  44.8326600  12.3814740  48.5472890  44.0778040  13.6586240
  50.2819150  48.5375290  11.7328400  51.2340900  48.4533310  11.6828640
  50.1347370  49.2017000  12.4062190  37.7351960  41.1888590  12.1179630
  38.2390980  40.6095870  12.6895860  36.9959380  41.4728820  12.6556000
  44.7889900  42.5959580  11.6515150  44.0235570  43.1644580  11.5669820
  44.9705860  42.3035790  10.7583380  51.9313250  44.3264910  12.2090170
  52.6722720  44.6640670  11.7057630  51.1685930  44.4956970  11.6559940
  39.7675040  39.3318180  13.0129700  39.8080380  39.0332050  13.9214930
  40.6220540  39.7325790  12.8537220  41.7080850  37.9110280  10.9804190
  41.1777310  37.4201230  10.3527530  42.3768920  38.3394480  10.4462120
  50.6058910  42.3779740  10.7445380  51.0199930  42.5324820  11.5935800
  49.6709910  42.5034960  10.9071160  51.0781080  39.7175900  12.7484530
  51.6601850  38.9628220  12.6605010  51.2542850  40.2483340  11.9716010
  42.1953150  34.8772650  11.0601480  42.1010020  34.2593400  10.3352350
  41.6150540  35.6038940  10.8331390  44.9614590  33.4345890   8.0928870
  44.5131890  33.4570150   7.2474420  44.3279790  33.0364910   8.6899170
  45.3674140  42.3300220   8.7141310  45.7862250  43.1732950   8.5417550
  44.4482770  42.4672260   8.4848090  47.7038040  40.0616400  10.0979150
  47.8234250  39.4657540  10.8373990  48.5632040  40.0986090   9.6780450
  50.0425940  40.6153590   8.6741660  49.5161160  41.1396210   8.0706800
  50.3857280  41.2480980   9.3051390  43.2181560  48.6353230   9.8299040
  42.6802650  49.3599290   9.5107740  43.4715520  48.1583570   9.0396380
  44.4706810  36.6037750  11.3554970  45.0606500  36.2953600  12.0432790
  43.6527050  36.1317500  11.5114870  49.2900240  36.2203560  11.5887990
  48.6015760  35.5585100  11.5237980  50.0106260  35.7741830  12.0336450
  46.0743770  49.8704440  10.0885690  46.0002470  50.7739580  10.3958060
  45.1722610  49.5516340  10.0607760  37.4771060  47.1979030   3.3919310
  37.8074070  46.3300090   3.1597950  37.9062060  47.4037550   4.2224270
  37.9661270  48.0649620   6.1300940  37.5292260  48.2450420   6.9625090
  38.5338950  48.8224240   5.9882660  53.6023450  47.5666620  10.4178250
  53.0025440  47.6259180   9.6742170  53.7317350  46.6271600  10.5475100
  37.7985700  40.5769850   2.4889820  37.1434540  40.3081490   1.8449520
  38.6363650  40.4674330   2.0391800  55.3041330  42.9082020   3.1024090
  55.6750160  42.1249340   2.6960060  55.9443260  43.5971120   2.9241390
  52.2875090  44.2918600   8.5154410  51.4734930  44.7215760   8.7780200
  52.6949290  44.9037010   7.9023460  38.8361630  40.9622420   7.0293160
  39.2034670  40.8749820   7.9089180  38.2672450  40.1988970   6.9300020
  53.6365490  39.4306800  10.0423630  53.4051580  39.2019550   9.1421580
  53.8970040  40.3506350   9.9968520  38.3877630  37.8731510  10.9351580
  37.4933680  37.8398270  11.2745290  38.9275180  38.0718300  11.7002830
  52.0753560  34.6563230  12.8203330  52.9523740  34.6646630  13.2037330
  52.0874400  33.9194070  12.2095680  53.5216830  38.5092770   3.7091350
  54.0454310  38.0155420   3.0781520  54.1076250  38.6443130   4.4538920
  53.7006550  38.5932640   7.2310900  52.7509260  38.5596180   7.3455890
  53.8819560  39.5032750   6.9960670  38.8917340  32.1479840   5.2834800
  39.5393530  31.5977220   4.8429960  39.3119180  32.4022990   6.1050610
  54.4403960  36.4027070   2.1821440  54.3303240  36.2483110   3.1203710
  55.2011550  35.8748010   1.9396850  52.7869680  32.3421200   8.6404440
  53.4241900  32.9555340   9.0063630  52.9344570  32.3781860   7.6953670
  38.6449340  32.3035510   8.0260120  38.2964160  32.7599330   8.7918300
  38.3137040  31.4092640   8.1082550  40.2513710  45.4755110  12.1913310
  40.2083340  45.1048020  13.0727770  40.3824720  46.4132680  12.3315130
  43.9519740  47.0314700   7.7923030  43.7111100  47.2989260   6.9053550
  44.8922380  47.2020430   7.8473890  46.1574160  33.4947390  11.5479540
  46.0963050  34.0869220  12.2974950  47.0974540  33.3873350  11.4029800
  48.7948720  33.1517450  11.1871830  49.4089130  33.4696740  10.5252910
  49.3398280  32.6666040  11.8067690  55.2123900  49.0509080   8.5933670
  54.7182180  49.4477950   7.8760800  54.6037190  48.4258290   8.9870950
  39.3169980  31.8311710  11.3010890  39.8652970  31.6499760  10.5377000
  39.3825290  31.0405820  11.8367200  40.0901740  48.4217360   9.3111090
  39.4962060  48.2902060  10.0501130  40.0825580  47.5855500   8.8453190
  49.5356760  31.7149590   7.5141120  48.6616600  32.0484700   7.3114050
  49.4267510  31.2422770   8.3392990  50.4428740  33.9220460   8.8982840
  50.1142100  33.1072220   8.5184570  51.3911040  33.8790270   8.7748530
  52.8963350  49.6932500   5.8720410  52.4366320  50.4448310   5.4978430
  52.2675810  48.9738970   5.8135210  39.7213970  45.7875740   8.2619130
  38.9948030  45.1681030   8.1945080  39.7823120  46.1816350   7.3917210
  43.3259070  48.0020740   5.0468540  43.8424090  47.3908100   4.5216800
  43.9756450  48.5049520   5.5379550  46.0654570  48.8929230   5.8737520
  46.3532380  48.6383530   4.9970530  46.5777790  48.3406590   6.4643090
  47.2831580  32.6319430   6.4534030  46.5003370  33.1064930   6.7330790
  46.9894510  31.7274260   6.3447210  51.8352650  33.3342530   4.4983120
  52.2760740  33.2787630   3.6504720  51.5660240  34.2500540   4.5693300
  53.6991220  32.9657770   2.5091940  53.6379620  32.0218990   2.3622960
  54.4783250  33.0737860   3.0545400  49.6710780  31.7148630   3.2033130
  50.2740150  32.2868840   3.6781650  48.9303770  32.2788070   2.9807030
  46.1326930  49.8145330  13.2405720  47.0594240  49.5789600  13.2841680
  46.1177360  50.6417330  12.7591750  49.9206000  31.8943660  13.5828070
  49.8071450  32.2138270  14.4779590  50.7375740  32.2956170  13.2865350
  52.7004490  49.0415190  13.0646760  53.4929810  48.5464420  12.8572720
  52.9937640  49.7205330  13.6722370  48.8264150  21.1392640  59.0436770
  48.7458200  20.2247250  58.7728480  48.4128570  21.6359710  58.3376480
  46.9582190  22.9171660  60.9246040  46.1824290  22.4372100  61.2144610
  47.6095120  22.2377310  60.7502200  40.9748020  23.2291470  61.8021800
  40.1432900  22.9740180  62.2018310  41.5829000  23.3002240  62.5379720
  50.9789620  27.3231850  59.7045170  50.5171150  26.5519090  60.0332340
  51.7915170  27.3497920  60.2097620  40.9549280  27.2631560  61.9979820
  41.2577320  26.3729300  61.8190040  41.6992870  27.8201780  61.7702070
  39.3839970  18.1893360  55.5864190  38.4956670  18.5309330  55.4844070
  39.6681160  17.9893680  54.6945020  37.3472980  20.7899010  61.4703890
  37.9189090  20.0221210  61.4707530  37.3474520  21.0887770  60.5610500
  47.2052930  29.6089860  59.3249160  46.5864370  30.0647360  58.7543600
  48.0604710  29.7641320  58.9238860  46.3991180  25.5928850  60.9316200
  46.3299460  24.6518790  60.7705330  47.1611040  25.6830260  61.5038770
  47.4296350  18.3999230  61.1585130  47.8061170  17.5271110  61.0458800
  47.3315860  18.7357930  60.2675570  41.5601360  16.7724860  56.6202570
  41.6668110  17.6728590  56.9271330  40.6493720  16.7242830  56.3297220
  51.2120470  15.8949670  58.0913470  52.0330090  15.4046240  58.1338950
  51.2454550  16.4847330  58.8445310  39.2084520  18.6943870  61.8655160
  39.8894630  18.9582240  62.4842560  38.8932570  17.8544740  62.1993170
  43.4009090  19.7411230  60.9527750  43.9087310  20.2392200  61.5932770
  43.9322330  18.9646430  60.7767110  48.0716280  24.4929100  56.7181070
  47.4533550  24.9578550  56.1543790  48.5839530  25.1856580  57.1350580
  51.4481950  17.8350050  60.8641010  50.7437520  18.1234940  61.4444120
  51.8094110  18.6450160  60.5040570  37.4399480  25.1785630  54.0920700
  37.0627460  25.6672730  53.3605600  37.6972550  25.8510910  54.7227230
  53.0644730  27.4525180  63.1268490  52.3808250  28.1224290  63.1185160
  53.6039020  27.6505830  62.3613350  54.5168870  17.2804840  61.2550220
  53.5693780  17.3143820  61.3865650  54.8418860  18.0943790  61.6399580
  45.0488410  13.5802020  59.5506210  45.3563390  13.0248910  58.8341710
  44.1189110  13.7146480  59.3679200  50.6003470  29.2969310  61.8413670
  50.6130630  28.8931600  60.9735930  50.0478690  30.0716600  61.7375100
  51.8948890  26.0185530  56.9303840  51.7845220  25.0759860  57.0553260
  51.8917140  26.3801170  57.8166600  47.4369170  21.6450850  56.2866330
  46.5098450  21.5788230  56.5154800  47.5893990  22.5830980  56.1721570
  47.4238250  17.9167850  53.2833490  46.4841920  18.0781810  53.3685950
  47.7421510  18.6353530  52.7369480  53.9451010  22.5986370  63.2612520
  53.1169640  22.6679460  62.7862650  54.5401490  23.1840680  62.7928350
  51.4666460  23.2071150  56.7901580  50.8478880  22.8690700  56.1427880
  51.4490910  22.5630910  57.4980770  43.0425810  22.1715590  59.0686060
  42.6382810  21.4592840  58.5731960  43.1288930  21.8268830  59.9574100
  43.5107510  25.8583150  61.2325270  43.2135800  25.2528620  60.5533050
  44.4607330  25.8960460  61.1214630  49.6431160  22.4457960  53.7974330
  50.0824440  21.6080390  53.6512150  50.3559580  23.0787360  53.8838470
  47.7526540  27.3854030  57.7655570  48.1922450  28.1278360  57.3510960
  47.6913430  27.6280600  58.6894530  53.2248300  13.7000770  52.1115370
  52.9120960  13.7927600  53.0114440  53.9860770  14.2781800  52.0612800
  39.7430440  21.0660570  56.5692710  39.6228040  21.7922660  55.9573980
  39.4331330  20.2963480  56.0920620  37.3815810  24.2375710  62.3761350
  37.4596230  24.3724480  61.4317070  37.9957490  23.5291600  62.5689470
  38.6263440  25.9375900  58.7867530  38.2191520  26.0790490  57.9321130
  39.5176450  25.6536060  58.5838740  50.4196720  30.3723150  55.1218580
  50.2597860  30.0826090  56.0200410  50.2543430  29.5963280  54.5863810
  42.8985100  30.1521680  56.8990200  42.7227580  29.2357220  56.6858000
  42.0440840  30.5108970  57.1388000  50.1222850  27.8810710  53.6816580
  49.4288010  27.8788000  53.0218860  50.8645710  27.4570030  53.2510750
  49.6872780  29.5073420  57.7565070  50.1429730  28.7262800  58.0703690
  50.0265300  30.2180240  58.3006250  42.2094100  14.4095640  59.9516380
  41.7662250  15.1905180  59.6200900  42.7679090  14.7325530  60.6587320
  45.3252920  14.0306340  54.8322210  44.7007100  14.0266210  55.5575520
  45.2383040  13.1637300  54.4358180  44.2470000  14.9542970  61.8105980
  44.5442330  15.8605800  61.7298000  44.7955560  14.4661750  61.1965550
  42.0008320  19.5329210  57.6797630  41.7749240  19.3166380  58.5844250
  41.2200850  19.9657670  57.3343600  49.2306080  19.5392580  56.2788280
  48.6314970  20.2628380  56.0951900  49.7785690  19.4769360  55.4964730
  47.8370950  18.1756120  58.3091560  48.2300520  18.4928320  57.4960250
  48.1987800  17.2968000  58.4236080  36.8735120  14.7656920  60.5321760
  36.5848170  15.3359780  61.2446740  37.6180880  14.2861370  60.8952990
  37.0605350  18.7077040  51.7424480  36.9780020  19.6507800  51.8839470
  36.7088410  18.5651950  50.8636830  48.4226090  20.7661870  62.4042340
  47.6907210  21.2748680  62.7532440  48.0250430  19.9491850  62.1031120
  44.8603480  17.4416070  60.8094830  44.8639540  17.0006020  59.9599370
  45.7554600  17.7633400  60.9166650  40.7105860  17.3242560  59.7689040
  40.3705910  17.8017790  60.5256090  39.9483180  16.8707680  59.4090140
  44.9223630  18.4428150  53.8001590  45.0436450  18.4014630  54.7487410
  44.5372140  19.3052300  53.6448320  48.8852000  16.2195550  61.8165280
  48.9024740  16.6704200  62.6607130  48.6367580  15.3201190  62.0298720
  43.9345130  20.7529290  53.1984890  43.3662030  20.3047540  52.5720800
  44.6434130  21.1122070  52.6650040  38.0251940  16.2461540  58.6853710
  37.7398860  15.8817210  59.5232330  37.9630800  15.5142000  58.0716850
  41.4792610  24.7487480  55.4711300  40.7054870  24.2085100  55.3110020
  42.2087240  24.2294090  55.1329060  52.2380590  23.7452840  61.2637690
  52.9579710  24.2408130  60.8733800  52.0362410  23.0670730  60.6191560
  47.6990530  15.1390800  55.4067080  46.8855140  14.6403970  55.3312390
  47.5052480  15.9789050  54.9903430  50.4138920  19.5110450  53.7029240
  51.3018540  19.8227680  53.5280580  50.3844010  18.6382700  53.3109820
  41.5230010  24.4167860  59.1090110  42.0408680  23.6136120  59.0547000
  41.0714030  24.3547000  59.9506940  46.4099510  25.6834140  54.3817410
  46.7515210  26.4276370  53.8860730  45.5812220  25.9965260  54.7442240
  52.6853190  20.8222290  53.1709100  52.6016910  21.2536510  52.3205540
  53.4047380  21.2820640  53.6035920  53.7140440  27.6764550  55.8991230
  53.0716600  27.0220170  56.1734950  53.3271100  28.0819640  55.1231900
  49.2926920  25.0049980  59.7462920  49.6450740  24.4078110  59.0864290
  48.4089250  24.6794210  59.9171170  45.3790200  25.7647670  57.1533330
  46.0661330  26.3116880  57.5340920  44.5922620  26.3088400  57.1882940
  37.5182600  21.3820490  52.6450410  38.3877450  21.6645290  52.9286330
  37.0272920  22.1956360  52.5299220  44.6817410  22.7693700  56.7658690
  45.1380190  23.5798950  56.9918880  44.3305620  22.4516840  57.5977180
  40.5829190  13.1131350  57.2381210  40.4543820  13.1049250  58.1866130
  39.7591210  13.4514440  56.8872220  48.2582100  26.2832390  62.7128440
  48.9004330  25.5825550  62.8260610  48.7831450  27.0630830  62.5325330
  52.1037820  26.5681010  52.4367580  51.8775400  25.8511450  53.0292220
  51.7134020  26.3193450  51.5989330  37.8853850  30.5947870  53.2112040
  38.2451490  31.1937210  52.5569310  37.7446190  31.1407760  53.9847070
  51.6854070  24.4852950  54.0981740  51.3975770  24.9465640  54.8859620
  52.4806240  24.0250720  54.3665960  43.9022470  27.9779070  54.0285710
  43.8932570  28.7108760  53.4130220  42.9820830  27.7310650  54.1212670
  39.5029110  23.1993960  54.7732470  38.8957060  23.9392860  54.7827770
  39.9778460  23.2893320  53.9470670  52.4423930  16.3201720  55.2576920
  51.8137090  16.4247390  54.5435150  51.9475850  16.5398500  56.0470800
  46.8882070  28.0407310  52.6910900  46.9894050  27.8371300  51.7612880
  45.9883810  27.7865590  52.8958680  44.4107960  18.5987670  56.6734800
  43.7024110  19.0674010  57.1148410  44.6952440  17.9409680  57.3079990
  48.4423390  15.3238330  58.1130590  48.3191170  15.3424460  57.1640100
  49.3907950  15.3717270  58.2328990  45.5300180  30.5593630  57.3858570
  45.7841680  30.5215020  56.4637940  44.5812660  30.4326960  57.3786820
  42.6142980  16.9072750  54.0485510  43.4633510  17.3442900  53.9825700
  42.2474250  17.2193010  54.8757570  51.5352760  21.4785510  58.9617080
  50.5942900  21.4935740  59.1364770  51.8496830  20.6921470  59.4077380
  41.5134400  23.1605110  52.5221040  42.2797670  23.0486470  53.0846470
  41.5909090  22.4643080  51.8697810  40.2081160  20.5930180  53.2053930
  40.2884750  19.6457690  53.3171330  41.1000910  20.9237060  53.3114590
  53.5378340  28.6494360  60.6371340  53.6625760  29.4725530  61.1095150
  54.4043900  28.4385090  60.2895490  41.0095870  30.7425570  60.3088470
  41.7458350  30.1941030  60.5797040  41.3936790  31.6081580  60.1694460
  37.8941350  26.8099140  56.1829980  36.9681130  27.0520280  56.1735390
  38.3597780  27.6373400  56.0614730  44.1198180  29.9155880  52.1314040
  44.9126790  30.2044710  51.6795830  43.6002530  29.4848050  51.4526520
  53.1728350  29.1426010  53.5550780  52.8869860  28.7291150  52.7404960
  52.9747900  30.0713720  53.4351300  44.6375580  25.1359290  51.9956390
  44.5326220  24.5211640  52.7217770  44.4699800  24.6125180  51.2119400
  47.8778310  24.1979320  52.5998380  47.3288410  24.6448620  53.2441120
  48.4997570  23.6928570  53.1236050  43.5453430  23.1570240  54.4963680
  43.9669850  22.9910110  55.3395070  43.6704270  22.3470470  54.0018820
  46.0581070  22.1807850  51.7440780  46.5786730  21.4656870  51.3781930
  46.7049470  22.8193720  52.0441290  42.4412330  19.2303470  51.4421840
  42.2401390  18.3670830  51.8035180  42.2704380  19.1436830  50.5043440
  49.9200640  14.0411700  53.9708720  50.2002930  13.1979600  54.3268140
  49.1466370  14.2734810  54.4847470  41.2395130  16.3304090  51.4299720
  41.5421030  16.3371520  50.5218870  41.9789720  15.9801950  51.9267380
  44.4580060  15.2738710  52.4155920  44.1102060  14.5962700  51.8358370
  44.6592830  14.8128220  53.2299310  46.6229100  30.2619460  54.0342520
  47.5179890  30.6004430  54.0561280  46.6546730  29.5398870  53.4066800
  40.2625260  25.6346510  52.2629520  40.7000130  26.1776180  52.9187100
  40.7472990  24.8093460  52.2725860  37.4771060  28.4235540  59.7149780
  37.8074070  27.5556600  59.4828420  37.9062060  28.6294060  60.5454740
  42.0732980  26.7544550  57.3751750  41.7728520  26.6309520  58.2755660
  41.9670470  25.8953140  56.9667480  54.8424900  26.5340950  52.0778430
  54.0117860  26.6017600  52.5485660  55.0196730  27.4245070  51.7745290
  54.2981360  23.2788430  54.5812630  55.0600270  23.8485080  54.6872320
  54.3135730  22.7115630  55.3520940  37.7985700  21.8026360  58.8120290
  37.1434540  21.5338000  58.1679990  38.6363650  21.6930840  58.3622270
  55.3041330  24.1338530  59.4254560  55.6750160  23.3505850  59.0190530
  55.9443260  24.8227630  59.2471860  54.3500530  23.5722800  51.7385150
  54.6249370  24.4801680  51.6104370  54.1611270  23.5085330  52.6747140
  50.7476140  16.5967650  53.0338780  51.1661020  16.4098630  52.1935440
  50.4412200  15.7446700  53.3441710  54.2465870  21.5091790  56.7314580
  53.8709470  20.7419720  56.2995870  53.5168990  21.8914490  57.2189510
  37.0123780  19.0125290  54.7545620  36.1087860  19.2755490  54.5797280
  37.4964400  19.2836460  53.9745580  53.5216830  19.7349280  60.0321820
  54.0454310  19.2411930  59.4011990  54.1076250  19.8699640  60.7769390
  39.5550990  18.0690830  52.6640000  40.2642690  17.6474050  52.1787280
  38.8390930  18.1366060  52.0323350  39.2025150  14.1230160  51.7042650
  39.9253280  14.6639100  52.0223870  39.4749670  13.8493580  50.8284190
  53.0116800  18.9922630  55.9714230  53.5075920  18.7593500  56.7563110
  52.8132870  18.1534470  55.5551870  38.8917340  13.3736350  61.6065270
  39.5393530  12.8233730  61.1660430  39.3119180  13.6279500  62.4281080
  54.4403960  17.6283580  58.5051910  54.3303240  17.4739620  59.4434180
  55.2011550  17.1004520  58.2627320  55.3294230  15.4591500  51.7458050
  56.2543540  15.3272680  51.5376340  55.3070020  15.5384320  52.6994500
  55.4032720  16.2302160  54.3714760  54.6084220  16.1647280  54.9007670
  55.6076000  17.1652800  54.3600110  52.3451140  30.2693710  58.3653150
  52.9410210  29.9478280  57.6887570  52.6029290  29.7965530  59.1566420
  52.8963350  30.9189010  62.1950880  52.4366320  31.6704820  61.8208900
  52.2675810  30.1995480  62.1365680  43.3259070  29.2277250  61.3699010
  43.8424090  28.6164610  60.8447270  43.9756450  29.7306030  61.8610020
  46.0654570  30.1185740  62.1967990  46.3532380  29.8640040  61.3201000
  46.5777790  29.5663100  62.7873560  47.2831580  13.8575940  62.7764500
  46.5003370  14.3321440  63.0561260  46.9894510  12.9530770  62.6677680
  51.8352650  14.5599040  60.8213590  52.2760740  14.5044140  59.9735190
  51.5660240  15.4757050  60.8923770  53.6991220  14.1914280  58.8322410
  53.6379620  13.2475500  58.6853430  54.4783250  14.2994370  59.3775870
  38.0043970  30.3306640  57.7946360  37.8366010  29.6977320  58.4928250
  37.1378480  30.5366040  57.4440550  38.6271990  14.1623420  55.2978220
  39.3851350  14.2752300  54.7242250  38.1649160  14.9992620  55.2521650
  45.1685800  16.2762690  58.2880530  44.3560310  15.9019580  57.9476410
  45.6727440  15.5207770  58.5901720  49.6710780  12.9405140  59.5263600
  50.2740150  13.5125350  60.0012120  48.9303770  13.5044580  59.3037500
  52.8145380  13.3426700  54.8003880  53.0096010  14.2410150  55.0671310
  52.0275250  13.1113780  55.2936830  39.6106670  29.0239870  55.2396500
  39.0854290  29.4047900  54.5358460  39.5351250  29.6490640  55.9606210
  40.9997140  14.6887470  53.8380190  41.5289900  13.9017270  53.7088140
  41.6325460  15.3678660  54.0715720  43.1934980  14.4262610  56.8925580
  42.5637720  13.7249920  57.0595710  42.6540120  15.1866740  56.6758740
  54.3671990  30.5827410  56.5610440  54.5424180  29.8965150  55.9171360
  53.6693560  31.1074460  56.1687110  42.2099640  30.9722250  54.1145750
  42.9418460  30.6881530  53.5669640  42.4693310  30.7335530  55.0045130
  41.3714430  27.0886980  54.1192080  40.7423310  27.5572080  54.6677910
  41.4862260  26.2436200  54.5538270  51.2120470  15.8949670  39.3169980
  52.0330090  15.4046240  39.3595460  51.2454550  16.4847330  40.0701820
  55.5020020  17.9116420  45.8813610  54.7972190  18.2998130  45.3628720
  55.7677940  18.6066710  46.4834540  51.4481950  17.8350050  42.0897520
  50.7437520  18.1234940  42.6700630  51.8094110  18.6450160  41.7297080
  53.0644730  27.4525180  44.3525000  52.3808250  28.1224290  44.3441670
  53.6039020  27.6505830  43.5869860  54.5168870  17.2804840  42.4806730
  53.5693780  17.3143820  42.6122160  54.8418860  18.0943790  42.8656090
  45.0488410  13.5802020  40.7762720  45.3563390  13.0248910  40.0598220
  44.1189110  13.7146480  40.5935710  53.9451010  22.5986370  44.4869030
  53.1169640  22.6679460  44.0119160  54.5401490  23.1840680  44.0184860
  50.9093020  19.3855690  45.4323900  50.4964200  20.2109400  45.6863890
  50.1768970  18.8000730  45.2400260  51.5993120  29.4315020  46.1204880
  51.1223680  30.2387210  45.9277490  50.9154910  28.7793350  46.2731090
  42.6025940  25.5964840  49.1089580  41.7054470  25.8204810  49.3562980
  42.6278810  25.7199780  48.1600980  41.4297160  22.4678160  47.6846950
  41.2904930  23.3400960  48.0534350  40.5478520  22.1250970  47.5394890
  43.2277510  28.4099860  49.8932100  43.1992940  28.8142810  49.0260530
  43.0642480  27.4810220  49.7303700  53.2248300  13.7000770  33.3371880
  52.9120960  13.7927600  34.2370950  53.9860770  14.2781800  33.2869310
  55.1792330  29.1926960  51.1896270  55.6552050  29.6709850  51.8685350
  55.7999490  29.1244450  50.4641770  54.5825580  26.3839810  48.3496280
  54.7088640  26.1451690  47.4313460  54.6246960  25.5524350  48.8218360
  54.4349590  18.4372270  49.3146020  53.8193860  18.9451940  48.7861480
  54.1146010  17.5370600  49.2571960  51.4968420  18.4973110  47.9104870
  50.6462010  18.1978860  48.2313940  51.3370210  18.7415120  46.9988690
  48.5918130  19.9974860  50.0103660  48.9171540  19.1638610  49.6705890
  49.3798460  20.5203380  50.1581990  44.4407530  20.4314790  49.5714410
  44.3451130  19.4909520  49.4214810  45.2839510  20.6529860  49.1762480
  46.1463120  16.9263430  50.7944930  45.4561440  16.7335630  51.4291020
  46.8895420  17.2098070  51.3269230  48.8852000  16.2195550  43.0421790
  48.9024740  16.6704200  43.8863640  48.6367580  15.3201190  43.2555230
  52.3122750  13.6327730  48.8808170  52.6368520  12.9017390  49.4066150
  52.3479260  13.3141370  47.9789160  39.0114310  24.6541310  48.3008130
  38.6269100  24.0134980  48.8991090  39.3226500  25.3577430  48.8702860
  52.2380590  23.7452840  42.4894200  52.9579710  24.2408130  42.0990310
  52.0362410  23.0670730  41.8448070  47.6990530  15.1390800  36.6323590
  46.8855140  14.6403970  36.5568900  47.5052480  15.9789050  36.2159940
  47.6199390  23.8161900  48.3763200  47.5536700  22.8957570  48.1220790
  46.9904530  23.9137340  49.0907840  50.4138920  19.5110450  34.9285750
  51.3018540  19.8227680  34.7537090  50.3844010  18.6382700  34.5366330
  42.2087670  21.8413470  50.1311870  41.9087810  21.9870650  49.2339690
  42.9798910  21.2818760  50.0385260  47.5516120  26.6382470  48.1267000
  47.5660660  25.7063430  47.9085910  46.8441220  26.7242230  48.7656770
  53.7627330  23.2789810  47.4735580  53.0375520  23.8718590  47.2764970
  54.2902790  23.2713350  46.6748950  40.5829190  13.1131350  38.4637720
  40.4543820  13.1049250  39.4122640  39.7591210  13.4514440  38.1128730
  50.0319720  27.0827290  47.1421010  50.3675960  27.6693980  47.8198930
  49.1120060  26.9520000  47.3718800  37.5823120  14.8722470  47.9244420
  36.8681640  15.0719390  48.5297030  38.0018160  14.0962040  48.2959220
  37.8695710  28.8602730  48.9110950  37.9786830  27.9197470  48.7706340
  37.2176270  29.1257480  48.2624680  45.8608300  27.1318620  50.3109070
  45.5405170  26.4127860  50.8554760  45.1866660  27.8073690  50.3845130
  49.0761900  17.3644780  45.6745870  49.4442720  16.5439990  46.0025440
  48.2160100  17.4246670  46.0901520  52.4423930  16.3201720  36.4833430
  51.8137090  16.4247390  35.7691660  51.9475850  16.5398500  37.2727310
  48.4423390  15.3238330  39.3387100  48.3191170  15.3424460  38.3896610
  49.3907950  15.3717270  39.4585500  53.2430750  16.2352330  46.7412230
  52.7404350  16.9757730  47.0806040  54.0587410  16.6236330  46.4249020
  51.5352760  21.4785510  40.1873590  50.5942900  21.4935740  40.3621280
  51.8496830  20.6921470  40.6333890  40.0154150  29.9271640  50.7230560
  40.8166880  30.2483690  51.1365960  39.5005970  29.5667220  51.4450470
  48.8518780  26.0351510  50.6705970  48.2456940  26.0583110  49.9301720
  48.5472890  25.3034550  51.2073220  50.2819150  29.7631800  49.2815380
  51.2340900  29.6789820  49.2315620  50.1347370  30.4273510  49.9549170
  37.7351960  22.4145100  49.6666610  38.2390980  21.8352380  50.2382840
  36.9959380  22.6985330  50.2042980  44.7889900  23.8216090  49.2002130
  44.0235570  24.3901090  49.1156800  44.9705860  23.5292300  48.3070360
  51.9313250  25.5521420  49.7577150  52.6722720  25.8897180  49.2544610
  51.1685930  25.7213480  49.2046920  39.7675040  20.5574690  50.5616680
  39.8080380  20.2588560  51.4701910  40.6220540  20.9582300  50.4024200
  41.7080850  19.1366790  48.5291170  41.1777310  18.6457740  47.9014510
  42.3768920  19.5650990  47.9949100  50.6058910  23.6036250  48.2932360
  51.0199930  23.7581330  49.1422780  49.6709910  23.7291470  48.4558140
  51.0781080  20.9432410  50.2971510  51.6601850  20.1884730  50.2091990
  51.2542850  21.4739850  49.5202990  42.1953150  16.1029160  48.6088460
  42.1010020  15.4849910  47.8839330  41.6150540  16.8295450  48.3818370
  45.3674140  23.5556730  46.2628290  45.7862250  24.3989460  46.0904530
  44.4482770  23.6928770  46.0335070  47.7038040  21.2872910  47.6466130
  47.8234250  20.6914050  48.3860970  48.5632040  21.3242600  47.2267430
  50.0425940  21.8410100  46.2228640  49.5161160  22.3652720  45.6193780
  50.3857280  22.4737490  46.8538370  44.4706810  17.8294260  48.9041950
  45.0606500  17.5210110  49.5919770  43.6527050  17.3574010  49.0601850
  49.2900240  17.4460070  49.1374970  48.6015760  16.7841610  49.0724960
  50.0106260  16.9998340  49.5823430  49.9200640  14.0411700  35.1965230
  50.2002930  13.1979600  35.5524650  49.1466370  14.2734810  35.7103980
  46.0743770  31.0960950  47.6372670  46.0002470  31.9996090  47.9445040
  45.1722610  30.7772850  47.6094740  53.6023450  28.7923130  47.9665230
  53.0025440  28.8515690  47.2229150  53.7317350  27.8528110  48.0962080
  55.3041330  24.1338530  40.6511070  55.6750160  23.3505850  40.2447040
  55.9443260  24.8227630  40.4728370  52.2875090  25.5175110  46.0641390
  51.4734930  25.9472270  46.3267180  52.6949290  26.1293520  45.4510440
  50.7476140  16.5967650  34.2595290  51.1661020  16.4098630  33.4191950
  50.4412200  15.7446700  34.5698220  54.2465870  21.5091790  37.9571090
  53.8709470  20.7419720  37.5252380  53.5168990  21.8914490  38.4446020
  53.6365490  20.6563310  47.5910610  53.4051580  20.4276060  46.6908560
  53.8970040  21.5762860  47.5455500  38.3877630  19.0988020  48.4838560
  37.4933680  19.0654780  48.8232270  38.9275180  19.2974810  49.2489810
  52.0753560  15.8819740  50.3690310  52.9523740  15.8903140  50.7524310
  52.0874400  15.1450580  49.7582660  53.5216830  19.7349280  41.2578330
  54.0454310  19.2411930  40.6268500  54.1076250  19.8699640  42.0025900
  53.7006550  19.8189150  44.7797880  52.7509260  19.7852690  44.8942870
  53.8819560  20.7289260  44.5447650  53.0116800  18.9922630  37.1970740
  53.5075920  18.7593500  37.9819620  52.8132870  18.1534470  36.7808380
  54.4403960  17.6283580  39.7308420  54.3303240  17.4739620  40.6690690
  55.2011550  17.1004520  39.4883830  52.7869680  13.5677710  46.1891420
  53.4241900  14.1811850  46.5550610  52.9344570  13.6038370  45.2440650
  55.3294230  15.4591500  32.9714560  56.2543540  15.3272680  32.7632850
  55.3070020  15.5384320  33.9251010  55.4032720  16.2302160  35.5971270
  54.6084220  16.1647280  36.1264180  55.6076000  17.1652800  35.5856620
  40.2513710  26.7011620  49.7400290  40.2083340  26.3304530  50.6214750
  40.3824720  27.6389190  49.8802110  46.1574160  14.7203900  49.0966520
  46.0963050  15.3125730  49.8461930  47.0974540  14.6129860  48.9516780
  48.7948720  14.3773960  48.7358810  49.4089130  14.6953250  48.0739890
  49.3398280  13.8922550  49.3554670  55.2123900  30.2765590  46.1420650
  54.7182180  30.6734460  45.4247780  54.6037190  29.6514800  46.5357930
  39.3169980  13.0568220  48.8497870  39.8652970  12.8756270  48.0863980
  39.3825290  12.2662330  49.3854180  49.5356760  12.9406100  45.0628100
  48.6616600  13.2741210  44.8601030  49.4267510  12.4679280  45.8879970
  50.4428740  15.1476970  46.4469820  50.1142100  14.3328730  46.0671550
  51.3911040  15.1046780  46.3235510  52.8963350  30.9189010  43.4207390
  52.4366320  31.6704820  43.0465410  52.2675810  30.1995480  43.3622190
  47.2831580  13.8575940  44.0021010  46.5003370  14.3321440  44.2817770
  46.9894510  12.9530770  43.8934190  51.8352650  14.5599040  42.0470100
  52.2760740  14.5044140  41.1991700  51.5660240  15.4757050  42.1180280
  53.6991220  14.1914280  40.0578920  53.6379620  13.2475500  39.9109940
  54.4783250  14.2994370  40.6032380  49.6710780  12.9405140  40.7520110
  50.2740150  13.5125350  41.2268630  48.9303770  13.5044580  40.5294010
  52.8145380  13.3426700  36.0260390  53.0096010  14.2410150  36.2927820
  52.0275250  13.1113780  36.5193340  46.1326930  31.0401840  50.7892700
  47.0594240  30.8046110  50.8328660  46.1177360  31.8673840  50.3078730
  43.3190540  13.7046590  50.5534580  43.0374810  14.2080190  49.7895400
  43.7010240  12.9068340  50.1876710  49.9206000  13.1200170  51.1315050
  49.8071450  13.4394780  52.0266570  50.7375740  13.5212680  50.8352330
  52.7004490  30.2671700  50.6133740  53.4929810  29.7720930  50.4059700
  52.9937640  30.9461840  51.2209350  39.3839970  18.1893360  18.0377210
  38.4956670  18.5309330  17.9357090  39.6681160  17.9893680  17.1458040
  51.2120470  15.8949670  20.5426490  52.0330090  15.4046240  20.5851970
  51.2454550  16.4847330  21.2958330  55.5020020  17.9116420  27.1070120
  54.7972190  18.2998130  26.5885230  55.7677940  18.6066710  27.7091050
  51.4481950  17.8350050  23.3154030  50.7437520  18.1234940  23.8957140
  51.8094110  18.6450160  22.9553590  54.5168870  17.2804840  23.7063240
  53.5693780  17.3143820  23.8378670  54.8418860  18.0943790  24.0912600
  47.4238250  17.9167850  15.7346510  46.4841920  18.0781810  15.8198970
  47.7421510  18.6353530  15.1882500  53.9451010  22.5986370  25.7125540
  53.1169640  22.6679460  25.2375670  54.5401490  23.1840680  25.2441370
  53.2248300  13.7000770  14.5628390  52.9120960  13.7927600  15.4627460
  53.9860770  14.2781800  14.5125820  54.5825580  26.3839810  29.5752790
  54.7088640  26.1451690  28.6569970  54.6246960  25.5524350  30.0474870
  45.3252920  14.0306340  17.2835230  44.7007100  14.0266210  18.0088540
  45.2383040  13.1637300  16.8871200  49.2306080  19.5392580  18.7301300
  48.6314970  20.2628380  18.5464920  49.7785690  19.4769360  17.9477750
  47.8370950  18.1756120  20.7604580  48.2300520  18.4928320  19.9473270
  48.1987800  17.2968000  20.8749100  37.0605350  18.7077040  14.1937500
  36.9780020  19.6507800  14.3352490  36.7088410  18.5651950  13.3149850
  44.9223630  18.4428150  16.2514610  45.0436450  18.4014630  17.2000430
  44.5372140  19.3052300  16.0961340  43.9345130  20.7529290  15.6497910
  43.3662030  20.3047540  15.0233820  44.6434130  21.1122070  15.1163060
  52.3122750  13.6327730  30.1064680  52.6368520  12.9017390  30.6322660
  52.3479260  13.3141370  29.2045670  47.6990530  15.1390800  17.8580100
  46.8855140  14.6403970  17.7825410  47.5052480  15.9789050  17.4416450
  50.4138920  19.5110450  16.1542260  51.3018540  19.8227680  15.9793600
  50.3844010  18.6382700  15.7622840  52.6853190  20.8222290  15.6222120
  52.6016910  21.2536510  14.7718560  53.4047380  21.2820640  16.0548940
  53.7140440  27.6764550  18.3504250  53.0716600  27.0220170  18.6247970
  53.3271100  28.0819640  17.5744920  40.5829190  13.1131350  19.6894230
  40.4543820  13.1049250  20.6379150  39.7591210  13.4514440  19.3385240
  52.1037820  26.5681010  14.8880600  51.8775400  25.8511450  15.4805240
  51.7134020  26.3193450  14.0502350  51.6854070  24.4852950  16.5494760
  51.3975770  24.9465640  17.3372640  52.4806240  24.0250720  16.8178980
  52.4423930  16.3201720  17.7089940  51.8137090  16.4247390  16.9948170
  51.9475850  16.5398500  18.4983820  44.4107960  18.5987670  19.1247820
  43.7024110  19.0674010  19.5661430  44.6952440  17.9409680  19.7593010
  48.4423390  15.3238330  20.5643610  48.3191170  15.3424460  19.6153120
  49.3907950  15.3717270  20.6842010  42.6142980  16.9072750  16.4998530
  43.4633510  17.3442900  16.4338720  42.2474250  17.2193010  17.3270590
  44.1198180  29.9155880  14.5827060  44.9126790  30.2044710  14.1308850
  43.6002530  29.4848050  13.9039540  53.1728350  29.1426010  16.0063800
  52.8869860  28.7291150  15.1917980  52.9747900  30.0713720  15.8864320
  44.6375580  25.1359290  14.4469410  44.5326220  24.5211640  15.1730790
  44.4699800  24.6125180  13.6632420  47.8778310  24.1979320  15.0511400
  47.3288410  24.6448620  15.6954140  48.4997570  23.6928570  15.5749070
  46.0581070  22.1807850  14.1953800  46.5786730  21.4656870  13.8294950
  46.7049470  22.8193720  14.4954310  42.4412330  19.2303470  13.8934860
  42.2401390  18.3670830  14.2548200  42.2704380  19.1436830  12.9556460
  49.9200640  14.0411700  16.4221740  50.2002930  13.1979600  16.7781160
  49.1466370  14.2734810  16.9360490  41.2395130  16.3304090  13.8812740
  41.5421030  16.3371520  12.9731890  41.9789720  15.9801950  14.3780400
  44.4580060  15.2738710  14.8668940  44.1102060  14.5962700  14.2871390
  44.6592830  14.8128220  15.6812330  54.8424900  26.5340950  14.5291450
  54.0117860  26.6017600  14.9998680  55.0196730  27.4245070  14.2258310
  54.2981360  23.2788430  17.0325650  55.0600270  23.8485080  17.1385340
  54.3135730  22.7115630  17.8033960  55.3041330  24.1338530  21.8767580
  55.6750160  23.3505850  21.4703550  55.9443260  24.8227630  21.6984880
  54.3500530  23.5722800  14.1898170  54.6249370  24.4801680  14.0617390
  54.1611270  23.5085330  15.1260160  50.7476140  16.5967650  15.4851800
  51.1661020  16.4098630  14.6448460  50.4412200  15.7446700  15.7954730
  54.2465870  21.5091790  19.1827600  53.8709470  20.7419720  18.7508890
  53.5168990  21.8914490  19.6702530  37.0123780  19.0125290  17.2058640
  36.1087860  19.2755490  17.0310300  37.4964400  19.2836460  16.4258600
  53.5216830  19.7349280  22.4834840  54.0454310  19.2411930  21.8525010
  54.1076250  19.8699640  23.2282410  53.7006550  19.8189150  26.0054390
  52.7509260  19.7852690  26.1199380  53.8819560  20.7289260  25.7704160
  39.5550990  18.0690830  15.1153020  40.2642690  17.6474050  14.6300300
  38.8390930  18.1366060  14.4836370  39.2025150  14.1230160  14.1555670
  39.9253280  14.6639100  14.4736890  39.4749670  13.8493580  13.2797210
  53.0116800  18.9922630  18.4227250  53.5075920  18.7593500  19.2076130
  52.8132870  18.1534470  18.0064890  54.4403960  17.6283580  20.9564930
  54.3303240  17.4739620  21.8947200  55.2011550  17.1004520  20.7140340
  52.7869680  13.5677710  27.4147930  53.4241900  14.1811850  27.7807120
  52.9344570  13.6038370  26.4697160  55.3294230  15.4591500  14.1971070
  56.2543540  15.3272680  13.9889360  55.3070020  15.5384320  15.1507520
  55.4032720  16.2302160  16.8227780  54.6084220  16.1647280  17.3520690
  55.6076000  17.1652800  16.8113130  39.3169980  13.0568220  30.0754380
  39.8652970  12.8756270  29.3120490  39.3825290  12.2662330  30.6110690
  49.5356760  12.9406100  26.2884610  48.6616600  13.2741210  26.0857540
  49.4267510  12.4679280  27.1136480  51.8352650  14.5599040  23.2726610
  52.2760740  14.5044140  22.4248210  51.5660240  15.4757050  23.3436790
  53.6991220  14.1914280  21.2835430  53.6379620  13.2475500  21.1366450
  54.4783250  14.2994370  21.8288890  38.6271990  14.1623420  17.7491240
  39.3851350  14.2752300  17.1755270  38.1649160  14.9992620  17.7034670
  45.1685800  16.2762690  20.7393550  44.3560310  15.9019580  20.3989430
  45.6727440  15.5207770  21.0414740  49.6710780  12.9405140  21.9776620
  50.2740150  13.5125350  22.4525140  48.9303770  13.5044580  21.7550520
  52.8145380  13.3426700  17.2516900  53.0096010  14.2410150  17.5184330
  52.0275250  13.1113780  17.7449850  40.9997140  14.6887470  16.2893210
  41.5289900  13.9017270  16.1601160  41.6325460  15.3678660  16.5228740
  43.1934980  14.4262610  19.3438600  42.5637720  13.7249920  19.5108730
  42.6540120  15.1866740  19.1271760  54.3671990  30.5827410  19.0123460
  54.5424180  29.8965150  18.3684380  53.6693560  31.1074460  18.6200130
  49.9206000  13.1200170  32.3571560  49.8071450  13.4394780  33.2523080
  50.7375740  13.5212680  32.0608840  48.8264150  21.1392640   2.7206300
  48.7458200  20.2247250   2.4498010  48.4128570  21.6359710   2.0146010
  46.9582190  22.9171660   4.6015570  46.1824290  22.4372100   4.8914140
  47.6095120  22.2377310   4.4271730  40.9748020  23.2291470   5.4791330
  40.1432900  22.9740180   5.8787840  41.5829000  23.3002240   6.2149250
  50.9789620  27.3231850   3.3814700  50.5171150  26.5519090   3.7101870
  51.7915170  27.3497920   3.8867150  40.9549280  27.2631560   5.6749350
  41.2577320  26.3729300   5.4959570  41.6992870  27.8201780   5.4471600
  37.3472980  20.7899010   5.1473420  37.9189090  20.0221210   5.1477060
  37.3474520  21.0887770   4.2380030  47.2052930  29.6089860   3.0018690
  46.5864370  30.0647360   2.4313130  48.0604710  29.7641320   2.6008390
  46.3991180  25.5928850   4.6085730  46.3299460  24.6518790   4.4474860
  47.1611040  25.6830260   5.1808300  38.5897850  16.1983370   6.9342350
  38.4100690  15.3009120   7.2145110  38.1877930  16.7455240   7.6089300
  47.4296350  18.3999230   4.8354660  47.8061170  17.5271110   4.7228330
  47.3315860  18.7357930   3.9445100  51.2120470  15.8949670   1.7683000
  52.0330090  15.4046240   1.8108480  51.2454550  16.4847330   2.5214840
  39.2084520  18.6943870   5.5424690  39.8894630  18.9582240   6.1612090
  38.8932570  17.8544740   5.8762700  43.4009090  19.7411230   4.6297280
  43.9087310  20.2392200   5.2702300  43.9322330  18.9646430   4.4536640
  55.5020020  17.9116420   8.3326630  54.7972190  18.2998130   7.8141740
  55.7677940  18.6066710   8.9347560  41.6845190  14.3809790   8.8960700
  41.6863630  14.8982180   8.0906600  40.8549500  13.9039970   8.8730630
  42.9348040  24.0204970   7.0734200  42.6017420  24.6473890   7.7155270
  43.1114720  24.5466850   6.2935870  51.4481950  17.8350050   4.5410540
  50.7437520  18.1234940   5.1213650  51.8094110  18.6450160   4.1810100
  41.3660520  16.0919750   6.9031150  41.7077330  16.9361800   6.6085020
  40.4276330  16.2403490   7.0196490  42.1467140  25.9885770   8.8883380
  42.7641140  26.6636850   8.6067830  41.2860260  26.3973750   8.7970880
  53.0644730  27.4525180   6.8038020  52.3808250  28.1224290   6.7954690
  53.6039020  27.6505830   6.0382880  54.5168870  17.2804840   4.9319750
  53.5693780  17.3143820   5.0635180  54.8418860  18.0943790   5.3169110
  45.0488410  13.5802020   3.2275740  45.3563390  13.0248910   2.5111240
  44.1189110  13.7146480   3.0448730  50.6003470  29.2969310   5.5183200
  50.6130630  28.8931600   4.6505460  50.0478690  30.0716600   5.4144630
  49.9988910  24.1999150   6.8465810  50.4157700  23.9859260   6.0119270
  50.7228730  24.4571940   7.4174430  53.9451010  22.5986370   6.9382050
  53.1169640  22.6679460   6.4632180  54.5401490  23.1840680   6.4697880
  50.9093020  19.3855690   7.8836920  50.4964200  20.2109400   8.1376910
  50.1768970  18.8000730   7.6913280  43.0425810  22.1715590   2.7455590
  42.6382810  21.4592840   2.2501490  43.1288930  21.8268830   3.6343630
  43.5107510  25.8583150   4.9094800  43.2135800  25.2528620   4.2302580
  44.4607330  25.8960460   4.7984160  41.7554430  18.9458800   6.5254630
  42.3069020  19.0554140   5.7507880  42.2697940  19.3196400   7.2409860
  51.5993120  29.4315020   8.5717900  51.1223680  30.2387210   8.3790510
  50.9154910  28.7793350   8.7244110  42.6025940  25.5964840  11.5602600
  41.7054470  25.8204810  11.8076000  42.6278810  25.7199780  10.6114000
  41.4297160  22.4678160  10.1359970  41.2904930  23.3400960  10.5047370
  40.5478520  22.1250970   9.9907910  43.2277510  28.4099860  12.3445120
  43.1992940  28.8142810  11.4773550  43.0642480  27.4810220  12.1816720
  55.1792330  29.1926960  13.6409290  55.6552050  29.6709850  14.3198370
  55.7999490  29.1244450  12.9154790  37.3815810  24.2375710   6.0530880
  37.4596230  24.3724480   5.1086600  37.9957490  23.5291600   6.2459000
  54.5825580  26.3839810  10.8009300  54.7088640  26.1451690   9.8826480
  54.6246960  25.5524350  11.2731380  48.4442320  30.0867810   9.3704110
  48.9586990  29.9975820  10.1726540  47.6011400  30.4327510   9.6632020
  54.4349590  18.4372270  11.7659040  53.8193860  18.9451940  11.2374500
  54.1146010  17.5370600  11.7084980  37.4375330  25.2789880   8.5925340
  37.6006370  24.8095240   7.7744710  37.9027780  24.7713440   9.2574180
  42.2094100  14.4095640   3.6285910  41.7662250  15.1905180   3.2970430
  42.7679090  14.7325530   4.3356850  46.4963910  17.2764160   9.2321230
  46.0343280  17.4847180  10.0441170  46.0942020  16.4623510   8.9291900
  51.4968420  18.4973110  10.3617890  50.6462010  18.1978860  10.6826960
  51.3370210  18.7415120   9.4501710  48.5918130  19.9974860  12.4616680
  48.9171540  19.1638610  12.1218910  49.3798460  20.5203380  12.6095010
  44.2470000  14.9542970   5.4875510  44.5442330  15.8605800   5.4067530
  44.7955560  14.4661750   4.8735080  44.4407530  20.4314790  12.0227430
  44.3451130  19.4909520  11.8727830  45.2839510  20.6529860  11.6275500
  39.5718070  16.8428460  10.1761210  39.1781460  17.6903670  10.3833990
  38.8836470  16.2054830  10.3669850  46.1463120  16.9263430  13.2457950
  45.4561440  16.7335630  13.8804040  46.8895420  17.2098070  13.7782250
  36.8735120  14.7656920   4.2091290  36.5848170  15.3359780   4.9216270
  37.6180880  14.2861370   4.5722520  48.4226090  20.7661870   6.0811870
  47.6907210  21.2748680   6.4301970  48.0250430  19.9491850   5.7800650
  44.8603480  17.4416070   4.4864360  44.8639540  17.0006020   3.6368900
  45.7554600  17.7633400   4.5936180  40.7105860  17.3242560   3.4458570
  40.3705910  17.8017790   4.2025620  39.9483180  16.8707680   3.0859670
  48.8852000  16.2195550   5.4934810  48.9024740  16.6704200   6.3376660
  48.6367580  15.3201190   5.7068250  52.3122750  13.6327730  11.3321190
  52.6368520  12.9017390  11.8579170  52.3479260  13.3141370  10.4302180
  39.0114310  24.6541310  10.7521150  38.6269100  24.0134980  11.3504110
  39.3226500  25.3577430  11.3215880  45.1611450  21.5017850   6.2329770
  45.5281580  21.0276420   6.9791110  44.9716510  22.3759420   6.5738110
  38.0251940  16.2461540   2.3623240  37.7398860  15.8817210   3.2001860
  37.9630800  15.5142000   1.7486380  42.9510820  20.5426490   8.5513980
  42.6467890  21.4218470   8.7764340  43.9057280  20.6026280   8.5871420
  52.2380590  23.7452840   4.9407220  52.9579710  24.2408130   4.5503330
  52.0362410  23.0670730   4.2961090  47.6199390  23.8161900  10.8276220
  47.5536700  22.8957570  10.5733810  46.9904530  23.9137340  11.5420860
  41.5230010  24.4167860   2.7859640  42.0408680  23.6136120   2.7316530
  41.0714030  24.3547000   3.6276470  39.0074550  21.3829230   9.6985340
  38.6489490  22.0483080  10.2858680  38.7129110  20.5512780  10.0697960
  42.2087670  21.8413470  12.5824890  41.9087810  21.9870650  11.6852710
  42.9798910  21.2818760  12.4898280  47.5516120  26.6382470  10.5780020
  47.5660660  25.7063430  10.3598930  46.8441220  26.7242230  11.2169790
  53.7627330  23.2789810   9.9248600  53.0375520  23.8718590   9.7277990
  54.2902790  23.2713350   9.1261970  49.2926920  25.0049980   3.4232450
  49.6450740  24.4078110   2.7633820  48.4089250  24.6794210   3.5940700
  46.9850020  28.2800040   7.6720520  47.6292240  28.4859420   8.3493940
  47.3479460  27.5188440   7.2191370  48.2582100  26.2832390   6.3897970
  48.9004330  25.5825550   6.5030140  48.7831450  27.0630830   6.2094860
  50.0319720  27.0827290   9.5934030  50.3675960  27.6693980  10.2711950
  49.1120060  26.9520000   9.8231820  37.5823120  14.8722470  10.3757440
  36.8681640  15.0719390  10.9810050  38.0018160  14.0962040  10.7472240
  45.8608300  27.1318620  12.7622090  45.5405170  26.4127860  13.3067780
  45.1866660  27.8073690  12.8358150  49.0761900  17.3644780   8.1258890
  49.4442720  16.5439990   8.4538460  48.2160100  17.4246670   8.5414540
  46.0363890  20.0184370   8.3496860  46.5349140  20.4930190   9.0148710
  46.1786840  19.0947890   8.5566890  53.2430750  16.2352330   9.1925250
  52.7404350  16.9757730   9.5319060  54.0587410  16.6236330   8.8762040
  51.5352760  21.4785510   2.6386610  50.5942900  21.4935740   2.8134300
  51.8496830  20.6921470   3.0846910  53.5378340  28.6494360   4.3140870
  53.6625760  29.4725530   4.7864680  54.4043900  28.4385090   3.9665020
  41.0095870  30.7425570   3.9858000  41.7458350  30.1941030   4.2566570
  41.3936790  31.6081580   3.8463990  40.0154150  29.9271640  13.1743580
  40.8166880  30.2483690  13.5878980  39.5005970  29.5667220  13.8963490
  48.8518780  26.0351510  13.1218990  48.2456940  26.0583110  12.3814740
  48.5472890  25.3034550  13.6586240  50.2819150  29.7631800  11.7328400
  51.2340900  29.6789820  11.6828640  50.1347370  30.4273510  12.4062190
  37.7351960  22.4145100  12.1179630  38.2390980  21.8352380  12.6895860
  36.9959380  22.6985330  12.6556000  44.7889900  23.8216090  11.6515150
  44.0235570  24.3901090  11.5669820  44.9705860  23.5292300  10.7583380
  51.9313250  25.5521420  12.2090170  52.6722720  25.8897180  11.7057630
  51.1685930  25.7213480  11.6559940  39.7675040  20.5574690  13.0129700
  39.8080380  20.2588560  13.9214930  40.6220540  20.9582300  12.8537220
  41.7080850  19.1366790  10.9804190  41.1777310  18.6457740  10.3527530
  42.3768920  19.5650990  10.4462120  50.6058910  23.6036250  10.7445380
  51.0199930  23.7581330  11.5935800  49.6709910  23.7291470  10.9071160
  51.0781080  20.9432410  12.7484530  51.6601850  20.1884730  12.6605010
  51.2542850  21.4739850  11.9716010  42.1953150  16.1029160  11.0601480
  42.1010020  15.4849910  10.3352350  41.6150540  16.8295450  10.8331390
  44.9614590  14.6602400   8.0928870  44.5131890  14.6826660   7.2474420
  44.3279790  14.2621420   8.6899170  45.3674140  23.5556730   8.7141310
  45.7862250  24.3989460   8.5417550  44.4482770  23.6928770   8.4848090
  47.7038040  21.2872910  10.0979150  47.8234250  20.6914050  10.8373990
  48.5632040  21.3242600   9.6780450  50.0425940  21.8410100   8.6741660
  49.5161160  22.3652720   8.0706800  50.3857280  22.4737490   9.3051390
  43.2181560  29.8609740   9.8299040  42.6802650  30.5855800   9.5107740
  43.4715520  29.3840080   9.0396380  44.4706810  17.8294260  11.3554970
  45.0606500  17.5210110  12.0432790  43.6527050  17.3574010  11.5114870
  49.2900240  17.4460070  11.5887990  48.6015760  16.7841610  11.5237980
  50.0106260  16.9998340  12.0336450  46.0743770  31.0960950  10.0885690
  46.0002470  31.9996090  10.3958060  45.1722610  30.7772850  10.0607760
  37.4771060  28.4235540   3.3919310  37.8074070  27.5556600   3.1597950
  37.9062060  28.6294060   4.2224270  37.9661270  29.2906130   6.1300940
  37.5292260  29.4706930   6.9625090  38.5338950  30.0480750   5.9882660
  53.6023450  28.7923130  10.4178250  53.0025440  28.8515690   9.6742170
  53.7317350  27.8528110  10.5475100  37.7985700  21.8026360   2.4889820
  37.1434540  21.5338000   1.8449520  38.6363650  21.6930840   2.0391800
  55.3041330  24.1338530   3.1024090  55.6750160  23.3505850   2.6960060
  55.9443260  24.8227630   2.9241390  52.2875090  25.5175110   8.5154410
  51.4734930  25.9472270   8.7780200  52.6949290  26.1293520   7.9023460
  38.8361630  22.1878930   7.0293160  39.2034670  22.1006330   7.9089180
  38.2672450  21.4245480   6.9300020  53.6365490  20.6563310  10.0423630
  53.4051580  20.4276060   9.1421580  53.8970040  21.5762860   9.9968520
  38.3877630  19.0988020  10.9351580  37.4933680  19.0654780  11.2745290
  38.9275180  19.2974810  11.7002830  52.0753560  15.8819740  12.8203330
  52.9523740  15.8903140  13.2037330  52.0874400  15.1450580  12.2095680
  53.5216830  19.7349280   3.7091350  54.0454310  19.2411930   3.0781520
  54.1076250  19.8699640   4.4538920  53.7006550  19.8189150   7.2310900
  52.7509260  19.7852690   7.3455890  53.8819560  20.7289260   6.9960670
  38.8917340  13.3736350   5.2834800  39.5393530  12.8233730   4.8429960
  39.3119180  13.6279500   6.1050610  54.4403960  17.6283580   2.1821440
  54.3303240  17.4739620   3.1203710  55.2011550  17.1004520   1.9396850
  52.7869680  13.5677710   8.6404440  53.4241900  14.1811850   9.0063630
  52.9344570  13.6038370   7.6953670  38.6449340  13.5292020   8.0260120
  38.2964160  13.9855840   8.7918300  38.3137040  12.6349150   8.1082550
  40.2513710  26.7011620  12.1913310  40.2083340  26.3304530  13.0727770
  40.3824720  27.6389190  12.3315130  43.9519740  28.2571210   7.7923030
  43.7111100  28.5245770   6.9053550  44.8922380  28.4276940   7.8473890
  46.1574160  14.7203900  11.5479540  46.0963050  15.3125730  12.2974950
  47.0974540  14.6129860  11.4029800  48.7948720  14.3773960  11.1871830
  49.4089130  14.6953250  10.5252910  49.3398280  13.8922550  11.8067690
  55.2123900  30.2765590   8.5933670  54.7182180  30.6734460   7.8760800
  54.6037190  29.6514800   8.9870950  39.3169980  13.0568220  11.3010890
  39.8652970  12.8756270  10.5377000  39.3825290  12.2662330  11.8367200
  40.0901740  29.6473870   9.3111090  39.4962060  29.5158570  10.0501130
  40.0825580  28.8112010   8.8453190  49.5356760  12.9406100   7.5141120
  48.6616600  13.2741210   7.3114050  49.4267510  12.4679280   8.3392990
  50.4428740  15.1476970   8.8982840  50.1142100  14.3328730   8.5184570
  51.3911040  15.1046780   8.7748530  52.8963350  30.9189010   5.8720410
  52.4366320  31.6704820   5.4978430  52.2675810  30.1995480   5.8135210
  39.7213970  27.0132250   8.2619130  38.9948030  26.3937540   8.1945080
  39.7823120  27.4072860   7.3917210  43.3259070  29.2277250   5.0468540
  43.8424090  28.6164610   4.5216800  43.9756450  29.7306030   5.5379550
  46.0654570  30.1185740   5.8737520  46.3532380  29.8640040   4.9970530
  46.5777790  29.5663100   6.4643090  47.2831580  13.8575940   6.4534030
  46.5003370  14.3321440   6.7330790  46.9894510  12.9530770   6.3447210
  51.8352650  14.5599040   4.4983120  52.2760740  14.5044140   3.6504720
  51.5660240  15.4757050   4.5693300  53.6991220  14.1914280   2.5091940
  53.6379620  13.2475500   2.3622960  54.4783250  14.2994370   3.0545400
  49.6710780  12.9405140   3.2033130  50.2740150  13.5125350   3.6781650
  48.9303770  13.5044580   2.9807030  46.1326930  31.0401840  13.2405720
  47.0594240  30.8046110  13.2841680  46.1177360  31.8673840  12.7591750
  43.3190540  13.7046590  13.0047600  43.0374810  14.2080190  12.2408420
  43.7010240  12.9068340  12.6389730  49.9206000  13.1200170  13.5828070
  49.8071450  13.4394780  14.4779590  50.7375740  13.5212680  13.2865350
  52.7004490  30.2671700  13.0646760  53.4929810  29.7720930  12.8572720
  52.9937640  30.9461840  13.6722370  48.8264150   2.3649150  59.0436770
  48.7458200   1.4503760  58.7728480  48.4128570   2.8616220  58.3376480
  46.9582190   4.1428170  60.9246040  46.1824290   3.6628610  61.2144610
  47.6095120   3.4633820  60.7502200  40.9748020   4.4547980  61.8021800
  40.1432900   4.1996690  62.2018310  41.5829000   4.5258750  62.5379720
  50.9789620   8.5488360  59.7045170  50.5171150   7.7775600  60.0332340
  51.7915170   8.5754430  60.2097620  40.9549280   8.4888070  61.9979820
  41.2577320   7.5985810  61.8190040  41.6992870   9.0458290  61.7702070
  47.2052930  10.8346370  59.3249160  46.5864370  11.2903870  58.7543600
  48.0604710  10.9897830  58.9238860  46.3991180   6.8185360  60.9316200
  46.3299460   5.8775300  60.7705330  47.1611040   6.9086770  61.5038770
  48.0716280   5.7185610  56.7181070  47.4533550   6.1835060  56.1543790
  48.5839530   6.4113090  57.1350580  37.4399480   6.4042140  54.0920700
  37.0627460   6.8929240  53.3605600  37.6972550   7.0767420  54.7227230
  53.0644730   8.6781690  63.1268490  52.3808250   9.3480800  63.1185160
  53.6039020   8.8762340  62.3613350  50.6003470  10.5225820  61.8413670
  50.6130630  10.1188110  60.9735930  50.0478690  11.2973110  61.7375100
  51.8948890   7.2442040  56.9303840  51.7845220   6.3016370  57.0553260
  51.8917140   7.6057680  57.8166600  47.4369170   2.8707360  56.2866330
  46.5098450   2.8044740  56.5154800  47.5893990   3.8087490  56.1721570
  53.9451010   3.8242880  63.2612520  53.1169640   3.8935970  62.7862650
  54.5401490   4.4097190  62.7928350  51.4666460   4.4327660  56.7901580
  50.8478880   4.0947210  56.1427880  51.4490910   3.7887420  57.4980770
  43.0425810   3.3972100  59.0686060  42.6382810   2.6849350  58.5731960
  43.1288930   3.0525340  59.9574100  43.5107510   7.0839660  61.2325270
  43.2135800   6.4785130  60.5533050  44.4607330   7.1216970  61.1214630
  49.6431160   3.6714470  53.7974330  50.0824440   2.8336900  53.6512150
  50.3559580   4.3043870  53.8838470  47.7526540   8.6110540  57.7655570
  48.1922450   9.3534870  57.3510960  47.6913430   8.8537110  58.6894530
  39.7430440   2.2917080  56.5692710  39.6228040   3.0179170  55.9573980
  39.4331330   1.5219990  56.0920620  37.3815810   5.4632220  62.3761350
  37.4596230   5.5980990  61.4317070  37.9957490   4.7548110  62.5689470
  38.6263440   7.1632410  58.7867530  38.2191520   7.3047000  57.9321130
  39.5176450   6.8792570  58.5838740  50.4196720  11.5979660  55.1218580
  50.2597860  11.3082600  56.0200410  50.2543430  10.8219790  54.5863810
  42.8985100  11.3778190  56.8990200  42.7227580  10.4613730  56.6858000
  42.0440840  11.7365480  57.1388000  50.1222850   9.1067220  53.6816580
  49.4288010   9.1044510  53.0218860  50.8645710   8.6826540  53.2510750
  49.6872780  10.7329930  57.7565070  50.1429730   9.9519310  58.0703690
  50.0265300  11.4436750  58.3006250  43.9345130   1.9785800  53.1984890
  43.3662030   1.5304050  52.5720800  44.6434130   2.3378580  52.6650040
  41.4792610   5.9743990  55.4711300  40.7054870   5.4341610  55.3110020
  42.2087240   5.4550600  55.1329060  52.2380590   4.9709350  61.2637690
  52.9579710   5.4664640  60.8733800  52.0362410   4.2927240  60.6191560
  41.5230010   5.6424370  59.1090110  42.0408680   4.8392630  59.0547000
  41.0714030   5.5803510  59.9506940  46.4099510   6.9090650  54.3817410
  46.7515210   7.6532880  53.8860730  45.5812220   7.2221770  54.7442240
  52.6853190   2.0478800  53.1709100  52.6016910   2.4793020  52.3205540
  53.4047380   2.5077150  53.6035920  53.7140440   8.9021060  55.8991230
  53.0716600   8.2476680  56.1734950  53.3271100   9.3076150  55.1231900
  49.2926920   6.2306490  59.7462920  49.6450740   5.6334620  59.0864290
  48.4089250   5.9050720  59.9171170  45.3790200   6.9904180  57.1533330
  46.0661330   7.5373390  57.5340920  44.5922620   7.5344910  57.1882940
  37.5182600   2.6077000  52.6450410  38.3877450   2.8901800  52.9286330
  37.0272920   3.4212870  52.5299220  44.6817410   3.9950210  56.7658690
  45.1380190   4.8055460  56.9918880  44.3305620   3.6773350  57.5977180
  48.2582100   7.5088900  62.7128440  48.9004330   6.8082060  62.8260610
  48.7831450   8.2887340  62.5325330  52.1037820   7.7937520  52.4367580
  51.8775400   7.0767960  53.0292220  51.7134020   7.5449960  51.5989330
  37.8853850  11.8204380  53.2112040  38.2451490  12.4193720  52.5569310
  37.7446190  12.3664270  53.9847070  51.6854070   5.7109460  54.0981740
  51.3975770   6.1722150  54.8859620  52.4806240   5.2507230  54.3665960
  43.9022470   9.2035580  54.0285710  43.8932570   9.9365270  53.4130220
  42.9820830   8.9567160  54.1212670  39.5029110   4.4250470  54.7732470
  38.8957060   5.1649370  54.7827770  39.9778460   4.5149830  53.9470670
  46.8882070   9.2663820  52.6910900  46.9894050   9.0627810  51.7612880
  45.9883810   9.0122100  52.8958680  45.5300180  11.7850140  57.3858570
  45.7841680  11.7471530  56.4637940  44.5812660  11.6583470  57.3786820
  51.5352760   2.7042020  58.9617080  50.5942900   2.7192250  59.1364770
  51.8496830   1.9177980  59.4077380  41.5134400   4.3861620  52.5221040
  42.2797670   4.2742980  53.0846470  41.5909090   3.6899590  51.8697810
  53.5378340   9.8750870  60.6371340  53.6625760  10.6982040  61.1095150
  54.4043900   9.6641600  60.2895490  41.0095870  11.9682080  60.3088470
  41.7458350  11.4197540  60.5797040  41.3936790  12.8338090  60.1694460
  37.8941350   8.0355650  56.1829980  36.9681130   8.2776790  56.1735390
  38.3597780   8.8629910  56.0614730  44.1198180  11.1412390  52.1314040
  44.9126790  11.4301220  51.6795830  43.6002530  10.7104560  51.4526520
  53.1728350  10.3682520  53.5550780  52.8869860   9.9547660  52.7404960
  52.9747900  11.2970230  53.4351300  44.6375580   6.3615800  51.9956390
  44.5326220   5.7468150  52.7217770  44.4699800   5.8381690  51.2119400
  47.8778310   5.4235830  52.5998380  47.3288410   5.8705130  53.2441120
  48.4997570   4.9185080  53.1236050  43.5453430   4.3826750  54.4963680
  43.9669850   4.2166620  55.3395070  43.6704270   3.5726980  54.0018820
  46.0581070   3.4064360  51.7440780  46.5786730   2.6913380  51.3781930
  46.7049470   4.0450230  52.0441290  46.6229100  11.4875970  54.0342520
  47.5179890  11.8260940  54.0561280  46.6546730  10.7655380  53.4066800
  40.2625260   6.8603020  52.2629520  40.7000130   7.4032690  52.9187100
  40.7472990   6.0349970  52.2725860  37.4771060   9.6492050  59.7149780
  37.8074070   8.7813110  59.4828420  37.9062060   9.8550570  60.5454740
  42.0732980   7.9801060  57.3751750  41.7728520   7.8566030  58.2755660
  41.9670470   7.1209650  56.9667480  54.8424900   7.7597460  52.0778430
  54.0117860   7.8274110  52.5485660  55.0196730   8.6501580  51.7745290
  54.2981360   4.5044940  54.5812630  55.0600270   5.0741590  54.6872320
  54.3135730   3.9372140  55.3520940  37.7985700   3.0282870  58.8120290
  37.1434540   2.7594510  58.1679990  38.6363650   2.9187350  58.3622270
  55.3041330   5.3595040  59.4254560  55.6750160   4.5762360  59.0190530
  55.9443260   6.0484140  59.2471860  54.3500530   4.7979310  51.7385150
  54.6249370   5.7058190  51.6104370  54.1611270   4.7341840  52.6747140
  54.2465870   2.7348300  56.7314580  53.8709470   1.9676230  56.2995870
  53.5168990   3.1171000  57.2189510  52.3451140  11.4950220  58.3653150
  52.9410210  11.1734790  57.6887570  52.6029290  11.0222040  59.1566420
  52.8963350  12.1445520  62.1950880  52.4366320  12.8961330  61.8208900
  52.2675810  11.4251990  62.1365680  43.3259070  10.4533760  61.3699010
  43.8424090   9.8421120  60.8447270  43.9756450  10.9562540  61.8610020
  46.0654570  11.3442250  62.1967990  46.3532380  11.0896550  61.3201000
  46.5777790  10.7919610  62.7873560  38.0043970  11.5563150  57.7946360
  37.8366010  10.9233830  58.4928250  37.1378480  11.7622550  57.4440550
  39.6106670  10.2496380  55.2396500  39.0854290  10.6304410  54.5358460
  39.5351250  10.8747150  55.9606210  54.3671990  11.8083920  56.5610440
  54.5424180  11.1221660  55.9171360  53.6693560  12.3330970  56.1687110
  42.2099640  12.1978760  54.1145750  42.9418460  11.9138040  53.5669640
  42.4693310  11.9592040  55.0045130  41.3714430   8.3143490  54.1192080
  40.7423310   8.7828590  54.6677910  41.4862260   7.4692710  54.5538270
  48.8264150   2.3649150  40.2693280  48.7458200   1.4503760  39.9984990
  48.4128570   2.8616220  39.5632990  46.9582190   4.1428170  42.1502550
  46.1824290   3.6628610  42.4401120  47.6095120   3.4633820  41.9758710
  40.9748020   4.4547980  43.0278310  40.1432900   4.1996690  43.4274820
  41.5829000   4.5258750  43.7636230  50.9789620   8.5488360  40.9301680
  50.5171150   7.7775600  41.2588850  51.7915170   8.5754430  41.4354130
  40.9549280   8.4888070  43.2236330  41.2577320   7.5985810  43.0446550
  41.6992870   9.0458290  42.9958580  47.2052930  10.8346370  40.5505670
  46.5864370  11.2903870  39.9800110  48.0604710  10.9897830  40.1495370
  46.3991180   6.8185360  42.1572710  46.3299460   5.8775300  41.9961840
  47.1611040   6.9086770  42.7295280  48.0716280   5.7185610  37.9437580
  47.4533550   6.1835060  37.3800300  48.5839530   6.4113090  38.3607090
  42.9348040   5.2461480  44.6221180  42.6017420   5.8730400  45.2642250
  43.1114720   5.7723360  43.8422850  42.1467140   7.2142280  46.4370360
  42.7641140   7.8893360  46.1554810  41.2860260   7.6230260  46.3457860
  37.4399480   6.4042140  35.3177210  37.0627460   6.8929240  34.5862110
  37.6972550   7.0767420  35.9483740  53.0644730   8.6781690  44.3525000
  52.3808250   9.3480800  44.3441670  53.6039020   8.8762340  43.5869860
  50.6003470  10.5225820  43.0670180  50.6130630  10.1188110  42.1992440
  50.0478690  11.2973110  42.9631610  51.8948890   7.2442040  38.1560350
  51.7845220   6.3016370  38.2809770  51.8917140   7.6057680  39.0423110
  49.9988910   5.4255660  44.3952790  50.4157700   5.2115770  43.5606250
  50.7228730   5.6828450  44.9661410  47.4369170   2.8707360  37.5122840
  46.5098450   2.8044740  37.7411310  47.5893990   3.8087490  37.3978080
  53.9451010   3.8242880  44.4869030  53.1169640   3.8935970  44.0119160
  54.5401490   4.4097190  44.0184860  51.4666460   4.4327660  38.0158090
  50.8478880   4.0947210  37.3684390  51.4490910   3.7887420  38.7237280
  43.0425810   3.3972100  40.2942570  42.6382810   2.6849350  39.7988470
  43.1288930   3.0525340  41.1830610  43.5107510   7.0839660  42.4581780
  43.2135800   6.4785130  41.7789560  44.4607330   7.1216970  42.3471140
  51.5993120  10.6571530  46.1204880  51.1223680  11.4643720  45.9277490
  50.9154910  10.0049860  46.2731090  42.6025940   6.8221350  49.1089580
  41.7054470   7.0461320  49.3562980  42.6278810   6.9456290  48.1600980
  49.6431160   3.6714470  35.0230840  50.0824440   2.8336900  34.8768660
  50.3559580   4.3043870  35.1094980  41.4297160   3.6934670  47.6846950
  41.2904930   4.5657470  48.0534350  40.5478520   3.3507480  47.5394890
  47.7526540   8.6110540  38.9912080  48.1922450   9.3534870  38.5767470
  47.6913430   8.8537110  39.9151040  43.2277510   9.6356370  49.8932100
  43.1992940  10.0399320  49.0260530  43.0642480   8.7066730  49.7303700
  39.7430440   2.2917080  37.7949220  39.6228040   3.0179170  37.1830490
  39.4331330   1.5219990  37.3177130  55.1792330  10.4183470  51.1896270
  55.6552050  10.8966360  51.8685350  55.7999490  10.3500960  50.4641770
  37.3815810   5.4632220  43.6017860  37.4596230   5.5980990  42.6573580
  37.9957490   4.7548110  43.7945980  38.6263440   7.1632410  40.0124040
  38.2191520   7.3047000  39.1577640  39.5176450   6.8792570  39.8095250
  54.5825580   7.6096320  48.3496280  54.7088640   7.3708200  47.4313460
  54.6246960   6.7780860  48.8218360  48.4442320  11.3124320  46.9191090
  48.9586990  11.2232330  47.7213520  47.6011400  11.6584020  47.2119000
  50.4196720  11.5979660  36.3475090  50.2597860  11.3082600  37.2456920
  50.2543430  10.8219790  35.8120320  42.8985100  11.3778190  38.1246710
  42.7227580  10.4613730  37.9114510  42.0440840  11.7365480  38.3644510
  50.1222850   9.1067220  34.9073090  49.4288010   9.1044510  34.2475370
  50.8645710   8.6826540  34.4767260  49.6872780  10.7329930  38.9821580
  50.1429730   9.9519310  39.2960200  50.0265300  11.4436750  39.5262760
  37.4375330   6.5046390  46.1412320  37.6006370   6.0351750  45.3231690
  37.9027780   5.9969950  46.8061160  43.9345130   1.9785800  34.4241400
  43.3662030   1.5304050  33.7977310  44.6434130   2.3378580  33.8906550
  39.0114310   5.8797820  48.3008130  38.6269100   5.2391490  48.8991090
  39.3226500   6.5833940  48.8702860  45.1611450   2.7274360  43.7816750
  45.5281580   2.2532930  44.5278090  44.9716510   3.6015930  44.1225090
  42.9510820   1.7683000  46.1000960  42.6467890   2.6474980  46.3251320
  43.9057280   1.8282790  46.1358400  41.4792610   5.9743990  36.6967810
  40.7054870   5.4341610  36.5366530  42.2087240   5.4550600  36.3585570
  52.2380590   4.9709350  42.4894200  52.9579710   5.4664640  42.0990310
  52.0362410   4.2927240  41.8448070  47.6199390   5.0418410  48.3763200
  47.5536700   4.1214080  48.1220790  46.9904530   5.1393850  49.0907840
  41.5230010   5.6424370  40.3346620  42.0408680   4.8392630  40.2803510
  41.0714030   5.5803510  41.1763450  46.4099510   6.9090650  35.6073920
  46.7515210   7.6532880  35.1117240  45.5812220   7.2221770  35.9698750
  39.0074550   2.6085740  47.2472320  38.6489490   3.2739590  47.8345660
  38.7129110   1.7769290  47.6184940  42.2087670   3.0669980  50.1311870
  41.9087810   3.2127160  49.2339690  42.9798910   2.5075270  50.0385260
  47.5516120   7.8638980  48.1267000  47.5660660   6.9319940  47.9085910
  46.8441220   7.9498740  48.7656770  52.6853190   2.0478800  34.3965610
  52.6016910   2.4793020  33.5462050  53.4047380   2.5077150  34.8292430
  53.7627330   4.5046320  47.4735580  53.0375520   5.0975100  47.2764970
  54.2902790   4.4969860  46.6748950  53.7140440   8.9021060  37.1247740
  53.0716600   8.2476680  37.3991460  53.3271100   9.3076150  36.3488410
  49.2926920   6.2306490  40.9719430  49.6450740   5.6334620  40.3120800
  48.4089250   5.9050720  41.1427680  45.3790200   6.9904180  38.3789840
  46.0661330   7.5373390  38.7597430  44.5922620   7.5344910  38.4139450
  37.5182600   2.6077000  33.8706920  38.3877450   2.8901800  34.1542840
  37.0272920   3.4212870  33.7555730  44.6817410   3.9950210  37.9915200
  45.1380190   4.8055460  38.2175390  44.3305620   3.6773350  38.8233690
  46.9850020   9.5056550  45.2207500  47.6292240   9.7115930  45.8980920
  47.3479460   8.7444950  44.7678350  48.2582100   7.5088900  43.9384950
  48.9004330   6.8082060  44.0517120  48.7831450   8.2887340  43.7581840
  52.1037820   7.7937520  33.6624090  51.8775400   7.0767960  34.2548730
  51.7134020   7.5449960  32.8245840  50.0319720   8.3083800  47.1421010
  50.3675960   8.8950490  47.8198930  49.1120060   8.1776510  47.3718800
  37.8853850  11.8204380  34.4368550  38.2451490  12.4193720  33.7825820
  37.7446190  12.3664270  35.2103580  51.6854070   5.7109460  35.3238250
  51.3975770   6.1722150  36.1116130  52.4806240   5.2507230  35.5922470
  37.8695710  10.0859240  48.9110950  37.9786830   9.1453980  48.7706340
  37.2176270  10.3513990  48.2624680  45.8608300   8.3575130  50.3109070
  45.5405170   7.6384370  50.8554760  45.1866660   9.0330200  50.3845130
  43.9022470   9.2035580  35.2542220  43.8932570   9.9365270  34.6386730
  42.9820830   8.9567160  35.3469180  39.5029110   4.4250470  35.9988980
  38.8957060   5.1649370  36.0084280  39.9778460   4.5149830  35.1727180
  46.8882070   9.2663820  33.9167410  46.9894050   9.0627810  32.9869390
  45.9883810   9.0122100  34.1215190  45.5300180  11.7850140  38.6115080
  45.7841680  11.7471530  37.6894450  44.5812660  11.6583470  38.6043330
  51.5352760   2.7042020  40.1873590  50.5942900   2.7192250  40.3621280
  51.8496830   1.9177980  40.6333890  41.5134400   4.3861620  33.7477550
  42.2797670   4.2742980  34.3102980  41.5909090   3.6899590  33.0954320
  53.5378340   9.8750870  41.8627850  53.6625760  10.6982040  42.3351660
  54.4043900   9.6641600  41.5152000  41.0095870  11.9682080  41.5344980
  41.7458350  11.4197540  41.8053550  41.3936790  12.8338090  41.3950970
  37.8941350   8.0355650  37.4086490  36.9681130   8.2776790  37.3991900
  38.3597780   8.8629910  37.2871240  40.0154150  11.1528150  50.7230560
  40.8166880  11.4740200  51.1365960  39.5005970  10.7923730  51.4450470
  44.1198180  11.1412390  33.3570550  44.9126790  11.4301220  32.9052340
  43.6002530  10.7104560  32.6783030  48.8518780   7.2608020  50.6705970
  48.2456940   7.2839620  49.9301720  48.5472890   6.5291060  51.2073220
  50.2819150  10.9888310  49.2815380  51.2340900  10.9046330  49.2315620
  50.1347370  11.6530020  49.9549170  53.1728350  10.3682520  34.7807290
  52.8869860   9.9547660  33.9661470  52.9747900  11.2970230  34.6607810
  37.7351960   3.6401610  49.6666610  38.2390980   3.0608890  50.2382840
  36.9959380   3.9241840  50.2042980  44.6375580   6.3615800  33.2212900
  44.5326220   5.7468150  33.9474280  44.4699800   5.8381690  32.4375910
  44.7889900   5.0472600  49.2002130  44.0235570   5.6157600  49.1156800
  44.9705860   4.7548810  48.3070360  47.8778310   5.4235830  33.8254890
  47.3288410   5.8705130  34.4697630  48.4997570   4.9185080  34.3492560
  51.9313250   6.7777930  49.7577150  52.6722720   7.1153690  49.2544610
  51.1685930   6.9469990  49.2046920  39.7675040   1.7831200  50.5616680
  39.8080380   1.4845070  51.4701910  40.6220540   2.1838810  50.4024200
  43.5453430   4.3826750  35.7220190  43.9669850   4.2166620  36.5651580
  43.6704270   3.5726980  35.2275330  46.0581070   3.4064360  32.9697290
  46.5786730   2.6913380  32.6038440  46.7049470   4.0450230  33.2697800
  50.6058910   4.8292760  48.2932360  51.0199930   4.9837840  49.1422780
  49.6709910   4.9547980  48.4558140  51.0781080   2.1688920  50.2971510
  51.6601850   1.4141240  50.2091990  51.2542850   2.6996360  49.5202990
  45.3674140   4.7813240  46.2628290  45.7862250   5.6245970  46.0904530
  44.4482770   4.9185280  46.0335070  47.7038040   2.5129420  47.6466130
  47.8234250   1.9170560  48.3860970  48.5632040   2.5499110  47.2267430
  50.0425940   3.0666610  46.2228640  49.5161160   3.5909230  45.6193780
  50.3857280   3.6994000  46.8538370  43.2181560  11.0866250  47.3786020
  42.6802650  11.8112310  47.0594720  43.4715520  10.6096590  46.5883360
  46.0743770  12.3217460  47.6372670  46.0002470  13.2252600  47.9445040
  45.1722610  12.0029360  47.6094740  46.6229100  11.4875970  35.2599030
  47.5179890  11.8260940  35.2817790  46.6546730  10.7655380  34.6323310
  40.2625260   6.8603020  33.4886030  40.7000130   7.4032690  34.1443610
  40.7472990   6.0349970  33.4982370  37.4771060   9.6492050  40.9406290
  37.8074070   8.7813110  40.7084930  37.9062060   9.8550570  41.7711250
  42.0732980   7.9801060  38.6008260  41.7728520   7.8566030  39.5012170
  41.9670470   7.1209650  38.1923990  37.9661270  10.5162640  43.6787920
  37.5292260  10.6963440  44.5112070  38.5338950  11.2737260  43.5369640
  53.6023450  10.0179640  47.9665230  53.0025440  10.0772200  47.2229150
  53.7317350   9.0784620  48.0962080  54.8424900   7.7597460  33.3034940
  54.0117860   7.8274110  33.7742170  55.0196730   8.6501580  33.0001800
  54.2981360   4.5044940  35.8069140  55.0600270   5.0741590  35.9128830
  54.3135730   3.9372140  36.5777450  37.7985700   3.0282870  40.0376800
  37.1434540   2.7594510  39.3936500  38.6363650   2.9187350  39.5878780
  55.3041330   5.3595040  40.6511070  55.6750160   4.5762360  40.2447040
  55.9443260   6.0484140  40.4728370  52.2875090   6.7431620  46.0641390
  51.4734930   7.1728780  46.3267180  52.6949290   7.3550030  45.4510440
  54.3500530   4.7979310  32.9641660  54.6249370   5.7058190  32.8360880
  54.1611270   4.7341840  33.9003650  54.2465870   2.7348300  37.9571090
  53.8709470   1.9676230  37.5252380  53.5168990   3.1171000  38.4446020
  38.8361630   3.4135440  44.5780140  39.2034670   3.3262840  45.4576160
  38.2672450   2.6501990  44.4787000  53.6365490   1.8819820  47.5910610
  53.4051580   1.6532570  46.6908560  53.8970040   2.8019370  47.5455500
  52.3451140  11.4950220  39.5909660  52.9410210  11.1734790  38.9144080
  52.6029290  11.0222040  40.3822930  40.2513710   7.9268130  49.7400290
  40.2083340   7.5561040  50.6214750  40.3824720   8.8645700  49.8802110
  43.9519740   9.4827720  45.3410010  43.7111100   9.7502280  44.4540530
  44.8922380   9.6533450  45.3960870  55.2123900  11.5022100  46.1420650
  54.7182180  11.8990970  45.4247780  54.6037190  10.8771310  46.5357930
  40.0901740  10.8730380  46.8598070  39.4962060  10.7415080  47.5988110
  40.0825580  10.0368520  46.3940170  52.8963350  12.1445520  43.4207390
  52.4366320  12.8961330  43.0465410  52.2675810  11.4251990  43.3622190
  39.7213970   8.2388760  45.8106110  38.9948030   7.6194050  45.7432060
  39.7823120   8.6329370  44.9404190  43.3259070  10.4533760  42.5955520
  43.8424090   9.8421120  42.0703780  43.9756450  10.9562540  43.0866530
  46.0654570  11.3442250  43.4224500  46.3532380  11.0896550  42.5457510
  46.5777790  10.7919610  44.0130070  38.0043970  11.5563150  39.0202870
  37.8366010  10.9233830  39.7184760  37.1378480  11.7622550  38.6697060
  39.6106670  10.2496380  36.4653010  39.0854290  10.6304410  35.7614970
  39.5351250  10.8747150  37.1862720  46.1326930  12.2658350  50.7892700
  47.0594240  12.0302620  50.8328660  46.1177360  13.0930350  50.3078730
  54.3671990  11.8083920  37.7866950  54.5424180  11.1221660  37.1427870
  53.6693560  12.3330970  37.3943620  41.3714430   8.3143490  35.3448590
  40.7423310   8.7828590  35.8934420  41.4862260   7.4692710  35.7794780
  52.7004490  11.4928210  50.6133740  53.4929810  10.9977440  50.4059700
  52.9937640  12.1718350  51.2209350  48.8264150   2.3649150  21.4949790
  48.7458200   1.4503760  21.2241500  48.4128570   2.8616220  20.7889500
  46.9582190   4.1428170  23.3759060  46.1824290   3.6628610  23.6657630
  47.6095120   3.4633820  23.2015220  40.9748020   4.4547980  24.2534820
  40.1432900   4.1996690  24.6531330  41.5829000   4.5258750  24.9892740
  50.9789620   8.5488360  22.1558190  50.5171150   7.7775600  22.4845360
  51.7915170   8.5754430  22.6610640  40.9549280   8.4888070  24.4492840
  41.2577320   7.5985810  24.2703060  41.6992870   9.0458290  24.2215090
  47.2052930  10.8346370  21.7762180  46.5864370  11.2903870  21.2056620
  48.0604710  10.9897830  21.3751880  46.3991180   6.8185360  23.3829220
  46.3299460   5.8775300  23.2218350  47.1611040   6.9086770  23.9551790
  48.0716280   5.7185610  19.1694090  47.4533550   6.1835060  18.6056810
  48.5839530   6.4113090  19.5863600  42.9348040   5.2461480  25.8477690
  42.6017420   5.8730400  26.4898760  43.1114720   5.7723360  25.0679360
  42.1467140   7.2142280  27.6626870  42.7641140   7.8893360  27.3811320
  41.2860260   7.6230260  27.5714370  37.4399480   6.4042140  16.5433720
  37.0627460   6.8929240  15.8118620  37.6972550   7.0767420  17.1740250
  53.0644730   8.6781690  25.5781510  52.3808250   9.3480800  25.5698180
  53.6039020   8.8762340  24.8126370  50.6003470  10.5225820  24.2926690
  50.6130630  10.1188110  23.4248950  50.0478690  11.2973110  24.1888120
  51.8948890   7.2442040  19.3816860  51.7845220   6.3016370  19.5066280
  51.8917140   7.6057680  20.2679620  49.9988910   5.4255660  25.6209300
  50.4157700   5.2115770  24.7862760  50.7228730   5.6828450  26.1917920
  47.4369170   2.8707360  18.7379350  46.5098450   2.8044740  18.9667820
  47.5893990   3.8087490  18.6234590  53.9451010   3.8242880  25.7125540
  53.1169640   3.8935970  25.2375670  54.5401490   4.4097190  25.2441370
  51.4666460   4.4327660  19.2414600  50.8478880   4.0947210  18.5940900
  51.4490910   3.7887420  19.9493790  43.0425810   3.3972100  21.5199080
  42.6382810   2.6849350  21.0244980  43.1288930   3.0525340  22.4087120
  43.5107510   7.0839660  23.6838290  43.2135800   6.4785130  23.0046070
  44.4607330   7.1216970  23.5727650  51.5993120  10.6571530  27.3461390
  51.1223680  11.4643720  27.1534000  50.9154910  10.0049860  27.4987600
  42.6025940   6.8221350  30.3346090  41.7054470   7.0461320  30.5819490
  42.6278810   6.9456290  29.3857490  49.6431160   3.6714470  16.2487350
  50.0824440   2.8336900  16.1025170  50.3559580   4.3043870  16.3351490
  41.4297160   3.6934670  28.9103460  41.2904930   4.5657470  29.2790860
  40.5478520   3.3507480  28.7651400  47.7526540   8.6110540  20.2168590
  48.1922450   9.3534870  19.8023980  47.6913430   8.8537110  21.1407550
  43.2277510   9.6356370  31.1188610  43.1992940  10.0399320  30.2517040
  43.0642480   8.7066730  30.9560210  39.7430440   2.2917080  19.0205730
  39.6228040   3.0179170  18.4087000  39.4331330   1.5219990  18.5433640
  55.1792330  10.4183470  32.4152780  55.6552050  10.8966360  33.0941860
  55.7999490  10.3500960  31.6898280  37.3815810   5.4632220  24.8274370
  37.4596230   5.5980990  23.8830090  37.9957490   4.7548110  25.0202490
  38.6263440   7.1632410  21.2380550  38.2191520   7.3047000  20.3834150
  39.5176450   6.8792570  21.0351760  54.5825580   7.6096320  29.5752790
  54.7088640   7.3708200  28.6569970  54.6246960   6.7780860  30.0474870
  50.4196720  11.5979660  17.5731600  50.2597860  11.3082600  18.4713430
  50.2543430  10.8219790  17.0376830  42.8985100  11.3778190  19.3503220
  42.7227580  10.4613730  19.1371020  42.0440840  11.7365480  19.5901020
  50.1222850   9.1067220  16.1329600  49.4288010   9.1044510  15.4731880
  50.8645710   8.6826540  15.7023770  49.6872780  10.7329930  20.2078090
  50.1429730   9.9519310  20.5216710  50.0265300  11.4436750  20.7519270
  37.4375330   6.5046390  27.3668830  37.6006370   6.0351750  26.5488200
  37.9027780   5.9969950  28.0317670  43.9345130   1.9785800  15.6497910
  43.3662030   1.5304050  15.0233820  44.6434130   2.3378580  15.1163060
  39.0114310   5.8797820  29.5264640  38.6269100   5.2391490  30.1247600
  39.3226500   6.5833940  30.0959370  45.1611450   2.7274360  25.0073260
  45.5281580   2.2532930  25.7534600  44.9716510   3.6015930  25.3481600
  42.9510820   1.7683000  27.3257470  42.6467890   2.6474980  27.5507830
  43.9057280   1.8282790  27.3614910  41.4792610   5.9743990  17.9224320
  40.7054870   5.4341610  17.7623040  42.2087240   5.4550600  17.5842080
  52.2380590   4.9709350  23.7150710  52.9579710   5.4664640  23.3246820
  52.0362410   4.2927240  23.0704580  47.6199390   5.0418410  29.6019710
  47.5536700   4.1214080  29.3477300  46.9904530   5.1393850  30.3164350
  41.5230010   5.6424370  21.5603130  42.0408680   4.8392630  21.5060020
  41.0714030   5.5803510  22.4019960  46.4099510   6.9090650  16.8330430
  46.7515210   7.6532880  16.3373750  45.5812220   7.2221770  17.1955260
  39.0074550   2.6085740  28.4728830  38.6489490   3.2739590  29.0602170
  38.7129110   1.7769290  28.8441450  42.2087670   3.0669980  31.3568380
  41.9087810   3.2127160  30.4596200  42.9798910   2.5075270  31.2641770
  47.5516120   7.8638980  29.3523510  47.5660660   6.9319940  29.1342420
  46.8441220   7.9498740  29.9913280  52.6853190   2.0478800  15.6222120
  52.6016910   2.4793020  14.7718560  53.4047380   2.5077150  16.0548940
  53.7627330   4.5046320  28.6992090  53.0375520   5.0975100  28.5021480
  54.2902790   4.4969860  27.9005460  53.7140440   8.9021060  18.3504250
  53.0716600   8.2476680  18.6247970  53.3271100   9.3076150  17.5744920
  49.2926920   6.2306490  22.1975940  49.6450740   5.6334620  21.5377310
  48.4089250   5.9050720  22.3684190  45.3790200   6.9904180  19.6046350
  46.0661330   7.5373390  19.9853940  44.5922620   7.5344910  19.6395960
  37.5182600   2.6077000  15.0963430  38.3877450   2.8901800  15.3799350
  37.0272920   3.4212870  14.9812240  44.6817410   3.9950210  19.2171710
  45.1380190   4.8055460  19.4431900  44.3305620   3.6773350  20.0490200
  46.9850020   9.5056550  26.4464010  47.6292240   9.7115930  27.1237430
  47.3479460   8.7444950  25.9934860  48.2582100   7.5088900  25.1641460
  48.9004330   6.8082060  25.2773630  48.7831450   8.2887340  24.9838350
  52.1037820   7.7937520  14.8880600  51.8775400   7.0767960  15.4805240
  51.7134020   7.5449960  14.0502350  50.0319720   8.3083800  28.3677520
  50.3675960   8.8950490  29.0455440  49.1120060   8.1776510  28.5975310
  37.8853850  11.8204380  15.6625060  38.2451490  12.4193720  15.0082330
  37.7446190  12.3664270  16.4360090  51.6854070   5.7109460  16.5494760
  51.3975770   6.1722150  17.3372640  52.4806240   5.2507230  16.8178980
  37.8695710  10.0859240  30.1367460  37.9786830   9.1453980  29.9962850
  37.2176270  10.3513990  29.4881190  45.8608300   8.3575130  31.5365580
  45.5405170   7.6384370  32.0811270  45.1866660   9.0330200  31.6101640
  43.9022470   9.2035580  16.4798730  43.8932570   9.9365270  15.8643240
  42.9820830   8.9567160  16.5725690  39.5029110   4.4250470  17.2245490
  38.8957060   5.1649370  17.2340790  39.9778460   4.5149830  16.3983690
  46.8882070   9.2663820  15.1423920  46.9894050   9.0627810  14.2125900
  45.9883810   9.0122100  15.3471700  45.5300180  11.7850140  19.8371590
  45.7841680  11.7471530  18.9150960  44.5812660  11.6583470  19.8299840
  51.5352760   2.7042020  21.4130100  50.5942900   2.7192250  21.5877790
  51.8496830   1.9177980  21.8590400  41.5134400   4.3861620  14.9734060
  42.2797670   4.2742980  15.5359490  41.5909090   3.6899590  14.3210830
  53.5378340   9.8750870  23.0884360  53.6625760  10.6982040  23.5608170
  54.4043900   9.6641600  22.7408510  37.8941350   8.0355650  18.6343000
  36.9681130   8.2776790  18.6248410  38.3597780   8.8629910  18.5127750
  40.0154150  11.1528150  31.9487070  40.8166880  11.4740200  32.3622470
  39.5005970  10.7923730  32.6706980  44.1198180  11.1412390  14.5827060
  44.9126790  11.4301220  14.1308850  43.6002530  10.7104560  13.9039540
  48.8518780   7.2608020  31.8962480  48.2456940   7.2839620  31.1558230
  48.5472890   6.5291060  32.4329730  50.2819150  10.9888310  30.5071890
  51.2340900  10.9046330  30.4572130  50.1347370  11.6530020  31.1805680
  53.1728350  10.3682520  16.0063800  52.8869860   9.9547660  15.1917980
  52.9747900  11.2970230  15.8864320  37.7351960   3.6401610  30.8923120
  38.2390980   3.0608890  31.4639350  36.9959380   3.9241840  31.4299490
  44.6375580   6.3615800  14.4469410  44.5326220   5.7468150  15.1730790
  44.4699800   5.8381690  13.6632420  44.7889900   5.0472600  30.4258640
  44.0235570   5.6157600  30.3413310  44.9705860   4.7548810  29.5326870
  47.8778310   5.4235830  15.0511400  47.3288410   5.8705130  15.6954140
  48.4997570   4.9185080  15.5749070  51.9313250   6.7777930  30.9833660
  52.6722720   7.1153690  30.4801120  51.1685930   6.9469990  30.4303430
  39.7675040   1.7831200  31.7873190  39.8080380   1.4845070  32.6958420
  40.6220540   2.1838810  31.6280710  43.5453430   4.3826750  16.9476700
  43.9669850   4.2166620  17.7908090  43.6704270   3.5726980  16.4531840
  46.0581070   3.4064360  14.1953800  46.5786730   2.6913380  13.8294950
  46.7049470   4.0450230  14.4954310  50.6058910   4.8292760  29.5188870
  51.0199930   4.9837840  30.3679290  49.6709910   4.9547980  29.6814650
  51.0781080   2.1688920  31.5228020  51.6601850   1.4141240  31.4348500
  51.2542850   2.6996360  30.7459500  45.3674140   4.7813240  27.4884800
  45.7862250   5.6245970  27.3161040  44.4482770   4.9185280  27.2591580
  47.7038040   2.5129420  28.8722640  47.8234250   1.9170560  29.6117480
  48.5632040   2.5499110  28.4523940  50.0425940   3.0666610  27.4485150
  49.5161160   3.5909230  26.8450290  50.3857280   3.6994000  28.0794880
  46.6229100  11.4875970  16.4855540  47.5179890  11.8260940  16.5074300
  46.6546730  10.7655380  15.8579820  40.2625260   6.8603020  14.7142540
  40.7000130   7.4032690  15.3700120  40.7472990   6.0349970  14.7238880
  37.4771060   9.6492050  22.1662800  37.8074070   8.7813110  21.9341440
  37.9062060   9.8550570  22.9967760  42.0732980   7.9801060  19.8264770
  41.7728520   7.8566030  20.7268680  41.9670470   7.1209650  19.4180500
  37.9661270  10.5162640  24.9044430  37.5292260  10.6963440  25.7368580
  38.5338950  11.2737260  24.7626150  53.6023450  10.0179640  29.1921740
  53.0025440  10.0772200  28.4485660  53.7317350   9.0784620  29.3218590
  54.8424900   7.7597460  14.5291450  54.0117860   7.8274110  14.9998680
  55.0196730   8.6501580  14.2258310  54.2981360   4.5044940  17.0325650
  55.0600270   5.0741590  17.1385340  54.3135730   3.9372140  17.8033960
  37.7985700   3.0282870  21.2633310  37.1434540   2.7594510  20.6193010
  38.6363650   2.9187350  20.8135290  55.3041330   5.3595040  21.8767580
  55.6750160   4.5762360  21.4703550  55.9443260   6.0484140  21.6984880
  52.2875090   6.7431620  27.2897900  51.4734930   7.1728780  27.5523690
  52.6949290   7.3550030  26.6766950  54.3500530   4.7979310  14.1898170
  54.6249370   5.7058190  14.0617390  54.1611270   4.7341840  15.1260160
  54.2465870   2.7348300  19.1827600  53.8709470   1.9676230  18.7508890
  53.5168990   3.1171000  19.6702530  38.8361630   3.4135440  25.8036650
  39.2034670   3.3262840  26.6832670  38.2672450   2.6501990  25.7043510
  53.6365490   1.8819820  28.8167120  53.4051580   1.6532570  27.9165070
  53.8970040   2.8019370  28.7712010  52.3451140  11.4950220  20.8166170
  52.9410210  11.1734790  20.1400590  52.6029290  11.0222040  21.6079440
  40.2513710   7.9268130  30.9656800  40.2083340   7.5561040  31.8471260
  40.3824720   8.8645700  31.1058620  43.9519740   9.4827720  26.5666520
  43.7111100   9.7502280  25.6797040  44.8922380   9.6533450  26.6217380
  55.2123900  11.5022100  27.3677160  54.7182180  11.8990970  26.6504290
  54.6037190  10.8771310  27.7614440  40.0901740  10.8730380  28.0854580
  39.4962060  10.7415080  28.8244620  40.0825580  10.0368520  27.6196680
  52.8963350  12.1445520  24.6463900  52.4366320  12.8961330  24.2721920
  52.2675810  11.4251990  24.5878700  39.7213970   8.2388760  27.0362620
  38.9948030   7.6194050  26.9688570  39.7823120   8.6329370  26.1660700
  43.3259070  10.4533760  23.8212030  43.8424090   9.8421120  23.2960290
  43.9756450  10.9562540  24.3123040  46.0654570  11.3442250  24.6481010
  46.3532380  11.0896550  23.7714020  46.5777790  10.7919610  25.2386580
  38.0043970  11.5563150  20.2459380  37.8366010  10.9233830  20.9441270
  37.1378480  11.7622550  19.8953570  39.6106670  10.2496380  17.6909520
  39.0854290  10.6304410  16.9871480  39.5351250  10.8747150  18.4119230
  54.3671990  11.8083920  19.0123460  54.5424180  11.1221660  18.3684380
  53.6693560  12.3330970  18.6200130  42.2099640  12.1978760  16.5658770
  42.9418460  11.9138040  16.0182660  42.4693310  11.9592040  17.4558150
  41.3714430   8.3143490  16.5705100  40.7423310   8.7828590  17.1190930
  41.4862260   7.4692710  17.0051290  52.7004490  11.4928210  31.8390250
  53.4929810  10.9977440  31.6316210  52.9937640  12.1718350  32.4465860
  48.8264150   2.3649150   2.7206300  48.7458200   1.4503760   2.4498010
  48.4128570   2.8616220   2.0146010  46.9582190   4.1428170   4.6015570
  46.1824290   3.6628610   4.8914140  47.6095120   3.4633820   4.4271730
  40.9748020   4.4547980   5.4791330  40.1432900   4.1996690   5.8787840
  41.5829000   4.5258750   6.2149250  50.9789620   8.5488360   3.3814700
  50.5171150   7.7775600   3.7101870  51.7915170   8.5754430   3.8867150
  40.9549280   8.4888070   5.6749350  41.2577320   7.5985810   5.4959570
  41.6992870   9.0458290   5.4471600  47.2052930  10.8346370   3.0018690
  46.5864370  11.2903870   2.4313130  48.0604710  10.9897830   2.6008390
  46.3991180   6.8185360   4.6085730  46.3299460   5.8775300   4.4474860
  47.1611040   6.9086770   5.1808300  42.9348040   5.2461480   7.0734200
  42.6017420   5.8730400   7.7155270  43.1114720   5.7723360   6.2935870
  42.1467140   7.2142280   8.8883380  42.7641140   7.8893360   8.6067830
  41.2860260   7.6230260   8.7970880  53.0644730   8.6781690   6.8038020
  52.3808250   9.3480800   6.7954690  53.6039020   8.8762340   6.0382880
  50.6003470  10.5225820   5.5183200  50.6130630  10.1188110   4.6505460
  50.0478690  11.2973110   5.4144630  49.9988910   5.4255660   6.8465810
  50.4157700   5.2115770   6.0119270  50.7228730   5.6828450   7.4174430
  53.9451010   3.8242880   6.9382050  53.1169640   3.8935970   6.4632180
  54.5401490   4.4097190   6.4697880  43.0425810   3.3972100   2.7455590
  42.6382810   2.6849350   2.2501490  43.1288930   3.0525340   3.6343630
  43.5107510   7.0839660   4.9094800  43.2135800   6.4785130   4.2302580
  44.4607330   7.1216970   4.7984160  51.5993120  10.6571530   8.5717900
  51.1223680  11.4643720   8.3790510  50.9154910  10.0049860   8.7244110
  42.6025940   6.8221350  11.5602600  41.7054470   7.0461320  11.8076000
  42.6278810   6.9456290  10.6114000  41.4297160   3.6934670  10.1359970
  41.2904930   4.5657470  10.5047370  40.5478520   3.3507480   9.9907910
  43.2277510   9.6356370  12.3445120  43.1992940  10.0399320  11.4773550
  43.0642480   8.7066730  12.1816720  55.1792330  10.4183470  13.6409290
  55.6552050  10.8966360  14.3198370  55.7999490  10.3500960  12.9154790
  37.3815810   5.4632220   6.0530880  37.4596230   5.5980990   5.1086600
  37.9957490   4.7548110   6.2459000  54.5825580   7.6096320  10.8009300
  54.7088640   7.3708200   9.8826480  54.6246960   6.7780860  11.2731380
  48.4442320  11.3124320   9.3704110  48.9586990  11.2232330  10.1726540
  47.6011400  11.6584020   9.6632020  37.4375330   6.5046390   8.5925340
  37.6006370   6.0351750   7.7744710  37.9027780   5.9969950   9.2574180
  39.0114310   5.8797820  10.7521150  38.6269100   5.2391490  11.3504110
  39.3226500   6.5833940  11.3215880  45.1611450   2.7274360   6.2329770
  45.5281580   2.2532930   6.9791110  44.9716510   3.6015930   6.5738110
  42.9510820   1.7683000   8.5513980  42.6467890   2.6474980   8.7764340
  43.9057280   1.8282790   8.5871420  52.2380590   4.9709350   4.9407220
  52.9579710   5.4664640   4.5503330  52.0362410   4.2927240   4.2961090
  47.6199390   5.0418410  10.8276220  47.5536700   4.1214080  10.5733810
  46.9904530   5.1393850  11.5420860  41.5230010   5.6424370   2.7859640
  42.0408680   4.8392630   2.7316530  41.0714030   5.5803510   3.6276470
  39.0074550   2.6085740   9.6985340  38.6489490   3.2739590  10.2858680
  38.7129110   1.7769290  10.0697960  42.2087670   3.0669980  12.5824890
  41.9087810   3.2127160  11.6852710  42.9798910   2.5075270  12.4898280
  47.5516120   7.8638980  10.5780020  47.5660660   6.9319940  10.3598930
  46.8441220   7.9498740  11.2169790  53.7627330   4.5046320   9.9248600
  53.0375520   5.0975100   9.7277990  54.2902790   4.4969860   9.1261970
  49.2926920   6.2306490   3.4232450  49.6450740   5.6334620   2.7633820
  48.4089250   5.9050720   3.5940700  46.9850020   9.5056550   7.6720520
  47.6292240   9.7115930   8.3493940  47.3479460   8.7444950   7.2191370
  48.2582100   7.5088900   6.3897970  48.9004330   6.8082060   6.5030140
  48.7831450   8.2887340   6.2094860  50.0319720   8.3083800   9.5934030
  50.3675960   8.8950490  10.2711950  49.1120060   8.1776510   9.8231820
  37.8695710  10.0859240  11.3623970  37.9786830   9.1453980  11.2219360
  37.2176270  10.3513990  10.7137700  45.8608300   8.3575130  12.7622090
  45.5405170   7.6384370  13.3067780  45.1866660   9.0330200  12.8358150
  51.5352760   2.7042020   2.6386610  50.5942900   2.7192250   2.8134300
  51.8496830   1.9177980   3.0846910  53.5378340   9.8750870   4.3140870
  53.6625760  10.6982040   4.7864680  54.4043900   9.6641600   3.9665020
  41.0095870  11.9682080   3.9858000  41.7458350  11.4197540   4.2566570
  41.3936790  12.8338090   3.8463990  40.0154150  11.1528150  13.1743580
  40.8166880  11.4740200  13.5878980  39.5005970  10.7923730  13.8963490
  48.8518780   7.2608020  13.1218990  48.2456940   7.2839620  12.3814740
  48.5472890   6.5291060  13.6586240  50.2819150  10.9888310  11.7328400
  51.2340900  10.9046330  11.6828640  50.1347370  11.6530020  12.4062190
  37.7351960   3.6401610  12.1179630  38.2390980   3.0608890  12.6895860
  36.9959380   3.9241840  12.6556000  44.7889900   5.0472600  11.6515150
  44.0235570   5.6157600  11.5669820  44.9705860   4.7548810  10.7583380
  51.9313250   6.7777930  12.2090170  52.6722720   7.1153690  11.7057630
  51.1685930   6.9469990  11.6559940  39.7675040   1.7831200  13.0129700
  39.8080380   1.4845070  13.9214930  40.6220540   2.1838810  12.8537220
  50.6058910   4.8292760  10.7445380  51.0199930   4.9837840  11.5935800
  49.6709910   4.9547980  10.9071160  51.0781080   2.1688920  12.7484530
  51.6601850   1.4141240  12.6605010  51.2542850   2.6996360  11.9716010
  45.3674140   4.7813240   8.7141310  45.7862250   5.6245970   8.5417550
  44.4482770   4.9185280   8.4848090  47.7038040   2.5129420  10.0979150
  47.8234250   1.9170560  10.8373990  48.5632040   2.5499110   9.6780450
  50.0425940   3.0666610   8.6741660  49.5161160   3.5909230   8.0706800
  50.3857280   3.6994000   9.3051390  43.2181560  11.0866250   9.8299040
  42.6802650  11.8112310   9.5107740  43.4715520  10.6096590   9.0396380
  46.0743770  12.3217460  10.0885690  46.0002470  13.2252600  10.3958060
  45.1722610  12.0029360  10.0607760  37.4771060   9.6492050   3.3919310
  37.8074070   8.7813110   3.1597950  37.9062060   9.8550570   4.2224270
  37.9661270  10.5162640   6.1300940  37.5292260  10.6963440   6.9625090
  38.5338950  11.2737260   5.9882660  53.6023450  10.0179640  10.4178250
  53.0025440  10.0772200   9.6742170  53.7317350   9.0784620  10.5475100
  37.7985700   3.0282870   2.4889820  37.1434540   2.7594510   1.8449520
  38.6363650   2.9187350   2.0391800  55.3041330   5.3595040   3.1024090
  55.6750160   4.5762360   2.6960060  55.9443260   6.0484140   2.9241390
  52.2875090   6.7431620   8.5154410  51.4734930   7.1728780   8.7780200
  52.6949290   7.3550030   7.9023460  38.8361630   3.4135440   7.0293160
  39.2034670   3.3262840   7.9089180  38.2672450   2.6501990   6.9300020
  53.6365490   1.8819820  10.0423630  53.4051580   1.6532570   9.1421580
  53.8970040   2.8019370   9.9968520  40.2513710   7.9268130  12.1913310
  40.2083340   7.5561040  13.0727770  40.3824720   8.8645700  12.3315130
  43.9519740   9.4827720   7.7923030  43.7111100   9.7502280   6.9053550
  44.8922380   9.6533450   7.8473890  55.2123900  11.5022100   8.5933670
  54.7182180  11.8990970   7.8760800  54.6037190  10.8771310   8.9870950
  40.0901740  10.8730380   9.3111090  39.4962060  10.7415080  10.0501130
  40.0825580  10.0368520   8.8453190  52.8963350  12.1445520   5.8720410
  52.4366320  12.8961330   5.4978430  52.2675810  11.4251990   5.8135210
  39.7213970   8.2388760   8.2619130  38.9948030   7.6194050   8.1945080
  39.7823120   8.6329370   7.3917210  43.3259070  10.4533760   5.0468540
  43.8424090   9.8421120   4.5216800  43.9756450  10.9562540   5.5379550
  46.0654570  11.3442250   5.8737520  46.3532380  11.0896550   4.9970530
  46.5777790  10.7919610   6.4643090  46.1326930  12.2658350  13.2405720
  47.0594240  12.0302620  13.2841680  46.1177360  13.0930350  12.7591750
  52.7004490  11.4928210  13.0646760  53.4929810  10.9977440  12.8572720
  52.9937640  12.1718350  13.6722370  30.0520660  77.4623110  59.0436770
  29.9714710  76.5477720  58.7728480  29.6385080  77.9590180  58.3376480
  28.1838700  79.2402130  60.9246040  27.4080800  78.7602570  61.2144610
  28.8351630  78.5607780  60.7502200  22.2004530  79.5521940  61.8021800
  21.3689410  79.2970650  62.2018310  22.8085510  79.6232710  62.5379720
  20.6096480  74.5123830  55.5864190  19.7213180  74.8539800  55.4844070
  20.8937670  74.3124150  54.6945020  18.5729490  77.1129480  61.4703890
  19.1445600  76.3451680  61.4707530  18.5731030  77.4118240  60.5610500
  28.6552860  74.7229700  61.1585130  29.0317680  73.8501580  61.0458800
  28.5572370  75.0588400  60.2675570  22.7857870  73.0955330  56.6202570
  22.8924620  73.9959060  56.9271330  21.8750230  73.0473300  56.3297220
  32.4376980  72.2180140  58.0913470  33.2586600  71.7276710  58.1338950
  32.4711060  72.8077800  58.8445310  20.4341030  75.0174340  61.8655160
  21.1151140  75.2812710  62.4842560  20.1189080  74.1775210  62.1993170
  24.6265600  76.0641700  60.9527750  25.1343820  76.5622670  61.5932770
  25.1578840  75.2876900  60.7767110  32.6738460  74.1580520  60.8641010
  31.9694030  74.4465410  61.4444120  33.0350620  74.9680630  60.5040570
  35.7425380  73.6035310  61.2550220  34.7950290  73.6374290  61.3865650
  36.0675370  74.4174260  61.6399580  26.2744920  69.9032490  59.5506210
  26.5819900  69.3479380  58.8341710  25.3445620  70.0376950  59.3679200
  28.6625680  77.9681320  56.2866330  27.7354960  77.9018700  56.5154800
  28.8150500  78.9061450  56.1721570  28.6494760  74.2398320  53.2833490
  27.7098430  74.4012280  53.3685950  28.9678020  74.9584000  52.7369480
  35.1707520  78.9216840  63.2612520  34.3426150  78.9909930  62.7862650
  35.7658000  79.5071150  62.7928350  32.6922970  79.5301620  56.7901580
  32.0735390  79.1921170  56.1427880  32.6747420  78.8861380  57.4980770
  24.2682320  78.4946060  59.0686060  23.8639320  77.7823310  58.5731960
  24.3545440  78.1499300  59.9574100  30.8687670  78.7688430  53.7974330
  31.3080950  77.9310860  53.6512150  31.5816090  79.4017830  53.8838470
  34.4504810  70.0231240  52.1115370  34.1377470  70.1158070  53.0114440
  35.2117280  70.6012270  52.0612800  20.9686950  77.3891040  56.5692710
  20.8484550  78.1153130  55.9573980  20.6587840  76.6193950  56.0920620
  23.4350610  70.7326110  59.9516380  22.9918760  71.5135650  59.6200900
  23.9935600  71.0556000  60.6587320  26.5509430  70.3536810  54.8322210
  25.9263610  70.3496680  55.5575520  26.4639550  69.4867770  54.4358180
  25.4726510  71.2773440  61.8105980  25.7698840  72.1836270  61.7298000
  26.0212070  70.7892220  61.1965550  23.2264830  75.8559680  57.6797630
  23.0005750  75.6396850  58.5844250  22.4457360  76.2888140  57.3343600
  30.4562590  75.8623050  56.2788280  29.8571480  76.5858850  56.0951900
  31.0042200  75.7999830  55.4964730  29.0627460  74.4986590  58.3091560
  29.4557030  74.8158790  57.4960250  29.4244310  73.6198470  58.4236080
  18.0991630  71.0887390  60.5321760  17.8104680  71.6590250  61.2446740
  18.8437390  70.6091840  60.8952990  18.2861860  75.0307510  51.7424480
  18.2036530  75.9738270  51.8839470  17.9344920  74.8882420  50.8636830
  29.6482600  77.0892340  62.4042340  28.9163720  77.5979150  62.7532440
  29.2506940  76.2722320  62.1031120  26.0859990  73.7646540  60.8094830
  26.0896050  73.3236490  59.9599370  26.9811110  74.0863870  60.9166650
  21.9362370  73.6473030  59.7689040  21.5962420  74.1248260  60.5256090
  21.1739690  73.1938150  59.4090140  26.1480140  74.7658620  53.8001590
  26.2692960  74.7245100  54.7487410  25.7628650  75.6282770  53.6448320
  30.1108510  72.5426020  61.8165280  30.1281250  72.9934670  62.6607130
  29.8624090  71.6431660  62.0298720  25.1601640  77.0759760  53.1984890
  24.5918540  76.6278010  52.5720800  25.8690640  77.4352540  52.6650040
  19.2508450  72.5692010  58.6853710  18.9655370  72.2047680  59.5232330
  19.1887310  71.8372470  58.0716850  28.9247040  71.4621270  55.4067080
  28.1111650  70.9634440  55.3312390  28.7308990  72.3019520  54.9903430
  31.6395430  75.8340920  53.7029240  32.5275050  76.1458150  53.5280580
  31.6100520  74.9613170  53.3109820  33.9109700  77.1452760  53.1709100
  33.8273420  77.5766980  52.3205540  34.6303890  77.6051110  53.6035920
  18.7439110  77.7050960  52.6450410  19.6133960  77.9875760  52.9286330
  18.2529430  78.5186830  52.5299220  25.9073920  79.0924170  56.7658690
  26.3636700  79.9029420  56.9918880  25.5562130  78.7747310  57.5977180
  21.8085700  69.4361820  57.2381210  21.6800330  69.4279720  58.1866130
  20.9847720  69.7744910  56.8872220  33.6680440  72.6432190  55.2576920
  33.0393600  72.7477860  54.5435150  33.1732360  72.8628970  56.0470800
  25.6364470  74.9218140  56.6734800  24.9280620  75.3904480  57.1148410
  25.9208950  74.2640150  57.3079990  29.6679900  71.6468800  58.1130590
  29.5447680  71.6654930  57.1640100  30.6164460  71.6947740  58.2328990
  23.8399490  73.2303220  54.0485510  24.6890020  73.6673370  53.9825700
  23.4730760  73.5423480  54.8757570  32.7609270  77.8015980  58.9617080
  31.8199410  77.8166210  59.1364770  33.0753340  77.0151940  59.4077380
  22.7390910  79.4835580  52.5221040  23.5054180  79.3716940  53.0846470
  22.8165600  78.7873550  51.8697810  21.4337670  76.9160650  53.2053930
  21.5141260  75.9688160  53.3171330  22.3257420  77.2467530  53.3114590
  24.7709940  79.4800710  54.4963680  25.1926360  79.3140580  55.3395070
  24.8960780  78.6700940  54.0018820  27.2837580  78.5038320  51.7440780
  27.8043240  77.7887340  51.3781930  27.9305980  79.1424190  52.0441290
  23.6668840  75.5533940  51.4421840  23.4657900  74.6901300  51.8035180
  23.4960890  75.4667300  50.5043440  31.1457150  70.3642170  53.9708720
  31.4259440  69.5210070  54.3268140  30.3722880  70.5965280  54.4847470
  22.4651640  72.6534560  51.4299720  22.7677540  72.6601990  50.5218870
  23.2046230  72.3032420  51.9267380  25.6836570  71.5969180  52.4155920
  25.3358570  70.9193170  51.8358370  25.8849340  71.1358690  53.2299310
  19.0242210  78.1256830  58.8120290  18.3691050  77.8568470  58.1679990
  19.8620160  78.0161310  58.3622270  31.9732650  72.9198120  53.0338780
  32.3917530  72.7329100  52.1935440  31.6668710  72.0677170  53.3441710
  35.4722380  77.8322260  56.7314580  35.0965980  77.0650190  56.2995870
  34.7425500  78.2144960  57.2189510  18.2380290  75.3355760  54.7545620
  17.3344370  75.5985960  54.5797280  18.7220910  75.6066930  53.9745580
  34.7473340  76.0579750  60.0321820  35.2710820  75.5642400  59.4011990
  35.3332760  76.1930110  60.7769390  20.7807500  74.3921300  52.6640000
  21.4899200  73.9704520  52.1787280  20.0647440  74.4596530  52.0323350
  20.4281660  70.4460630  51.7042650  21.1509790  70.9869570  52.0223870
  20.7006180  70.1724050  50.8284190  34.2373310  75.3153100  55.9714230
  34.7332430  75.0823970  56.7563110  34.0389380  74.4764940  55.5551870
  20.1173850  69.6966820  61.6065270  20.7650040  69.1464200  61.1660430
  20.5375690  69.9509970  62.4281080  35.6660470  73.9514050  58.5051910
  35.5559750  73.7970090  59.4434180  36.4268060  73.4234990  58.2627320
  36.5550740  71.7821970  51.7458050  37.4800050  71.6503150  51.5376340
  36.5326530  71.8614790  52.6994500  36.6289230  72.5532630  54.3714760
  35.8340730  72.4877750  54.9007670  36.8332510  73.4883270  54.3600110
  28.5088090  70.1806410  62.7764500  27.7259880  70.6551910  63.0561260
  28.2151020  69.2761240  62.6677680  33.0609160  70.8829510  60.8213590
  33.5017250  70.8274610  59.9735190  32.7916750  71.7987520  60.8923770
  34.9247730  70.5144750  58.8322410  34.8636130  69.5705970  58.6853430
  35.7039760  70.6224840  59.3775870  19.8528500  70.4853890  55.2978220
  20.6107860  70.5982770  54.7242250  19.3905670  71.3223090  55.2521650
  26.3942310  72.5993160  58.2880530  25.5816820  72.2250050  57.9476410
  26.8983950  71.8438240  58.5901720  30.8967290  69.2635610  59.5263600
  31.4996660  69.8355820  60.0012120  30.1560280  69.8275050  59.3037500
  34.0401890  69.6657170  54.8003880  34.2352520  70.5640620  55.0671310
  33.2531760  69.4344250  55.2936830  22.2253650  71.0117940  53.8380190
  22.7546410  70.2247740  53.7088140  22.8581970  71.6909130  54.0715720
  24.4191490  70.7493080  56.8925580  23.7894230  70.0480390  57.0595710
  23.8796630  71.5097210  56.6758740  30.0520660  77.4623110  40.2693280
  29.9714710  76.5477720  39.9984990  29.6385080  77.9590180  39.5632990
  28.1838700  79.2402130  42.1502550  27.4080800  78.7602570  42.4401120
  28.8351630  78.5607780  41.9758710  22.2004530  79.5521940  43.0278310
  21.3689410  79.2970650  43.4274820  22.8085510  79.6232710  43.7636230
  20.6096480  74.5123830  36.8120700  19.7213180  74.8539800  36.7100580
  20.8937670  74.3124150  35.9201530  18.5729490  77.1129480  42.6960400
  19.1445600  76.3451680  42.6964040  18.5731030  77.4118240  41.7867010
  19.8154360  72.5213840  44.4829330  19.6357200  71.6239590  44.7632090
  19.4134440  73.0685710  45.1576280  28.6552860  74.7229700  42.3841640
  29.0317680  73.8501580  42.2715310  28.5572370  75.0588400  41.4932080
  22.7857870  73.0955330  37.8459080  22.8924620  73.9959060  38.1527840
  21.8750230  73.0473300  37.5553730  32.4376980  72.2180140  39.3169980
  33.2586600  71.7276710  39.3595460  32.4711060  72.8077800  40.0701820
  20.4341030  75.0174340  43.0911670  21.1151140  75.2812710  43.7099070
  20.1189080  74.1775210  43.4249680  24.6265600  76.0641700  42.1784260
  25.1343820  76.5622670  42.8189280  25.1578840  75.2876900  42.0023620
  36.7276530  74.2346890  45.8813610  36.0228700  74.6228600  45.3628720
  36.9934450  74.9297180  46.4834540  22.9101700  70.7040260  46.4447680
  22.9120140  71.2212650  45.6393580  22.0806010  70.2270440  46.4217610
  32.6738460  74.1580520  42.0897520  31.9694030  74.4465410  42.6700630
  33.0350620  74.9680630  41.7297080  22.5917030  72.4150220  44.4518130
  22.9333840  73.2592270  44.1572000  21.6532840  72.5633960  44.5683470
  35.7425380  73.6035310  42.4806730  34.7950290  73.6374290  42.6122160
  36.0675370  74.4174260  42.8656090  26.2744920  69.9032490  40.7762720
  26.5819900  69.3479380  40.0598220  25.3445620  70.0376950  40.5935710
  28.6625680  77.9681320  37.5122840  27.7354960  77.9018700  37.7411310
  28.8150500  78.9061450  37.3978080  28.6494760  74.2398320  34.5090000
  27.7098430  74.4012280  34.5942460  28.9678020  74.9584000  33.9625990
  35.1707520  78.9216840  44.4869030  34.3426150  78.9909930  44.0119160
  35.7658000  79.5071150  44.0184860  32.6922970  79.5301620  38.0158090
  32.0735390  79.1921170  37.3684390  32.6747420  78.8861380  38.7237280
  32.1349530  75.7086160  45.4323900  31.7220710  76.5339870  45.6863890
  31.4025480  75.1231200  45.2400260  24.2682320  78.4946060  40.2942570
  23.8639320  77.7823310  39.7988470  24.3545440  78.1499300  41.1830610
  22.9810940  75.2689270  44.0741610  23.5325530  75.3784610  43.2994860
  23.4954450  75.6426870  44.7896840  30.8687670  78.7688430  35.0230840
  31.3080950  77.9310860  34.8768660  31.5816090  79.4017830  35.1094980
  22.6553670  78.7908630  47.6846950  22.5161440  79.6631430  48.0534350
  21.7735030  78.4481440  47.5394890  34.4504810  70.0231240  33.3371880
  34.1377470  70.1158070  34.2370950  35.2117280  70.6012270  33.2869310
  20.9686950  77.3891040  37.7949220  20.8484550  78.1153130  37.1830490
  20.6587840  76.6193950  37.3177130  35.6606100  74.7602740  49.3146020
  35.0450370  75.2682410  48.7861480  35.3402520  73.8601070  49.2571960
  23.4350610  70.7326110  41.1772890  22.9918760  71.5135650  40.8457410
  23.9935600  71.0556000  41.8843830  27.7220420  73.5994630  46.7808210
  27.2599790  73.8077650  47.5928150  27.3198530  72.7853980  46.4778880
  32.7224930  74.8203580  47.9104870  31.8718520  74.5209330  48.2313940
  32.5626720  75.0645590  46.9988690  29.8174640  76.3205330  50.0103660
  30.1428050  75.4869080  49.6705890  30.6054970  76.8433850  50.1581990
  26.5509430  70.3536810  36.0578720  25.9263610  70.3496680  36.7832030
  26.4639550  69.4867770  35.6614690  25.4726510  71.2773440  43.0362490
  25.7698840  72.1836270  42.9554510  26.0212070  70.7892220  42.4222060
  23.2264830  75.8559680  38.9054140  23.0005750  75.6396850  39.8100760
  22.4457360  76.2888140  38.5600110  30.4562590  75.8623050  37.5044790
  29.8571480  76.5858850  37.3208410  31.0042200  75.7999830  36.7221240
  25.6664040  76.7545260  49.5714410  25.5707640  75.8139990  49.4214810
  26.5096020  76.9760330  49.1762480  29.0627460  74.4986590  39.5348070
  29.4557030  74.8158790  38.7216760  29.4244310  73.6198470  39.6492590
  20.7974580  73.1658930  47.7248190  20.4037970  74.0134140  47.9320970
  20.1092980  72.5285300  47.9156830  27.3719630  73.2493900  50.7944930
  26.6817950  73.0566100  51.4291020  28.1151930  73.5328540  51.3269230
  18.0991630  71.0887390  41.7578270  17.8104680  71.6590250  42.4703250
  18.8437390  70.6091840  42.1209500  18.2861860  75.0307510  32.9680990
  18.2036530  75.9738270  33.1095980  17.9344920  74.8882420  32.0893340
  29.6482600  77.0892340  43.6298850  28.9163720  77.5979150  43.9788950
  29.2506940  76.2722320  43.3287630  26.0859990  73.7646540  42.0351340
  26.0896050  73.3236490  41.1855880  26.9811110  74.0863870  42.1423160
  21.9362370  73.6473030  40.9945550  21.5962420  74.1248260  41.7512600
  21.1739690  73.1938150  40.6346650  26.1480140  74.7658620  35.0258100
  26.2692960  74.7245100  35.9743920  25.7628650  75.6282770  34.8704830
  30.1108510  72.5426020  43.0421790  30.1281250  72.9934670  43.8863640
  29.8624090  71.6431660  43.2555230  25.1601640  77.0759760  34.4241400
  24.5918540  76.6278010  33.7977310  25.8690640  77.4352540  33.8906550
  33.5379260  69.9558200  48.8808170  33.8625030  69.2247860  49.4066150
  33.5735770  69.6371840  47.9789160  26.3867960  77.8248320  43.7816750
  26.7538090  77.3506890  44.5278090  26.1973020  78.6989890  44.1225090
  19.2508450  72.5692010  39.9110220  18.9655370  72.2047680  40.7488840
  19.1887310  71.8372470  39.2973360  24.1767330  76.8656960  46.1000960
  23.8724400  77.7448940  46.3251320  25.1313790  76.9256750  46.1358400
  28.9247040  71.4621270  36.6323590  28.1111650  70.9634440  36.5568900
  28.7308990  72.3019520  36.2159940  31.6395430  75.8340920  34.9285750
  32.5275050  76.1458150  34.7537090  31.6100520  74.9613170  34.5366330
  20.2331060  77.7059700  47.2472320  19.8746000  78.3713550  47.8345660
  19.9385620  76.8743250  47.6184940  23.4344180  78.1643940  50.1311870
  23.1344320  78.3101120  49.2339690  24.2055420  77.6049230  50.0385260
  33.9109700  77.1452760  34.3965610  33.8273420  77.5766980  33.5462050
  34.6303890  77.6051110  34.8292430  18.7439110  77.7050960  33.8706920
  19.6133960  77.9875760  34.1542840  18.2529430  78.5186830  33.7555730
  25.9073920  79.0924170  37.9915200  26.3636700  79.9029420  38.2175390
  25.5562130  78.7747310  38.8233690  21.8085700  69.4361820  38.4637720
  21.6800330  69.4279720  39.4122640  20.9847720  69.7744910  38.1128730
  18.8079630  71.1952940  47.9244420  18.0938150  71.3949860  48.5297030
  19.2274670  70.4192510  48.2959220  30.3018410  73.6875250  45.6745870
  30.6699230  72.8670460  46.0025440  29.4416610  73.7477140  46.0901520
  33.6680440  72.6432190  36.4833430  33.0393600  72.7477860  35.7691660
  33.1732360  72.8628970  37.2727310  25.6364470  74.9218140  37.8991310
  24.9280620  75.3904480  38.3404920  25.9208950  74.2640150  38.5336500
  27.2620400  76.3414840  45.8983840  27.7605650  76.8160660  46.5635690
  27.4043350  75.4178360  46.1053870  29.6679900  71.6468800  39.3387100
  29.5447680  71.6654930  38.3896610  30.6164460  71.6947740  39.4585500
  23.8399490  73.2303220  35.2742020  24.6890020  73.6673370  35.2082210
  23.4730760  73.5423480  36.1014080  34.4687260  72.5582800  46.7412230
  33.9660860  73.2988200  47.0806040  35.2843920  72.9466800  46.4249020
  32.7609270  77.8015980  40.1873590  31.8199410  77.8166210  40.3621280
  33.0753340  77.0151940  40.6333890  22.7390910  79.4835580  33.7477550
  23.5054180  79.3716940  34.3102980  22.8165600  78.7873550  33.0954320
  21.4337670  76.9160650  34.4310440  21.5141260  75.9688160  34.5427840
  22.3257420  77.2467530  34.5371100  18.9608470  78.7375570  49.6666610
  19.4647490  78.1582850  50.2382840  18.2215890  79.0215800  50.2042980
  20.9931550  76.8805160  50.5616680  21.0336890  76.5819030  51.4701910
  21.8477050  77.2812770  50.4024200  24.7709940  79.4800710  35.7220190
  25.1926360  79.3140580  36.5651580  24.8960780  78.6700940  35.2275330
  22.9337360  75.4597260  48.5291170  22.4033820  74.9688210  47.9014510
  23.6025430  75.8881460  47.9949100  27.2837580  78.5038320  32.9697290
  27.8043240  77.7887340  32.6038440  27.9305980  79.1424190  33.2697800
  32.3037590  77.2662880  50.2971510  32.8858360  76.5115200  50.2091990
  32.4799360  77.7970320  49.5202990  23.4209660  72.4259630  48.6088460
  23.3266530  71.8080380  47.8839330  22.8407050  73.1525920  48.3818370
  26.1871100  70.9832870  45.6415850  25.7388400  71.0057130  44.7961400
  25.5536300  70.5851890  46.2386150  28.9294550  77.6103380  47.6466130
  29.0490760  77.0144520  48.3860970  29.7888550  77.6473070  47.2267430
  31.2682450  78.1640570  46.2228640  30.7417670  78.6883190  45.6193780
  31.6113790  78.7967960  46.8538370  23.6668840  75.5533940  32.6678350
  23.4657900  74.6901300  33.0291690  23.4960890  75.4667300  31.7299950
  25.6963320  74.1524730  48.9041950  26.2863010  73.8440580  49.5919770
  24.8783560  73.6804480  49.0601850  30.5156750  73.7690540  49.1374970
  29.8272270  73.1072080  49.0724960  31.2362770  73.3228810  49.5823430
  31.1457150  70.3642170  35.1965230  31.4259440  69.5210070  35.5524650
  30.3722880  70.5965280  35.7103980  22.4651640  72.6534560  32.6556230
  22.7677540  72.6601990  31.7475380  23.2046230  72.3032420  33.1523890
  25.6836570  71.5969180  33.6412430  25.3358570  70.9193170  33.0614880
  25.8849340  71.1358690  34.4555820  19.0242210  78.1256830  40.0376800
  18.3691050  77.8568470  39.3936500  19.8620160  78.0161310  39.5878780
  31.9732650  72.9198120  34.2595290  32.3917530  72.7329100  33.4191950
  31.6668710  72.0677170  34.5698220  35.4722380  77.8322260  37.9571090
  35.0965980  77.0650190  37.5252380  34.7425500  78.2144960  38.4446020
  20.0618140  78.5109400  44.5780140  20.4291180  78.4236800  45.4576160
  19.4928960  77.7475950  44.4787000  34.8622000  76.9793780  47.5910610
  34.6308090  76.7506530  46.6908560  35.1226550  77.8993330  47.5455500
  19.6134140  75.4218490  48.4838560  18.7190190  75.3885250  48.8232270
  20.1531690  75.6205280  49.2489810  33.3010070  72.2050210  50.3690310
  34.1780250  72.2133610  50.7524310  33.3130910  71.4681050  49.7582660
  18.2380290  75.3355760  35.9802130  17.3344370  75.5985960  35.8053790
  18.7220910  75.6066930  35.2002090  34.7473340  76.0579750  41.2578330
  35.2710820  75.5642400  40.6268500  35.3332760  76.1930110  42.0025900
  34.9263060  76.1419620  44.7797880  33.9765770  76.1083160  44.8942870
  35.1076070  77.0519730  44.5447650  20.7807500  74.3921300  33.8896510
  21.4899200  73.9704520  33.4043790  20.0647440  74.4596530  33.2579860
  20.4281660  70.4460630  32.9299160  21.1509790  70.9869570  33.2480380
  20.7006180  70.1724050  32.0540700  34.2373310  75.3153100  37.1970740
  34.7332430  75.0823970  37.9819620  34.0389380  74.4764940  36.7808380
  20.1173850  69.6966820  42.8321780  20.7650040  69.1464200  42.3916940
  20.5375690  69.9509970  43.6537590  35.6660470  73.9514050  39.7308420
  35.5559750  73.7970090  40.6690690  36.4268060  73.4234990  39.4883830
  34.0126190  69.8908180  46.1891420  34.6498410  70.5042320  46.5550610
  34.1601080  69.9268840  45.2440650  36.5550740  71.7821970  32.9714560
  37.4800050  71.6503150  32.7632850  36.5326530  71.8614790  33.9251010
  36.6289230  72.5532630  35.5971270  35.8340730  72.4877750  36.1264180
  36.8332510  73.4883270  35.5856620  19.8705850  69.8522490  45.5747100
  19.5220670  70.3086310  46.3405280  19.5393550  68.9579620  45.6569530
  27.3830670  71.0434370  49.0966520  27.3219560  71.6356200  49.8461930
  28.3231050  70.9360330  48.9516780  30.0205230  70.7004430  48.7358810
  30.6345640  71.0183720  48.0739890  30.5654790  70.2153020  49.3554670
  20.5426490  69.3798690  48.8497870  21.0909480  69.1986740  48.0863980
  20.6081800  68.5892800  49.3854180  30.7613270  69.2636570  45.0628100
  29.8873110  69.5971680  44.8601030  30.6524020  68.7909750  45.8879970
  31.6685250  71.4707440  46.4469820  31.3398610  70.6559200  46.0671550
  32.6167550  71.4277250  46.3235510  28.5088090  70.1806410  44.0021010
  27.7259880  70.6551910  44.2817770  28.2151020  69.2761240  43.8934190
  33.0609160  70.8829510  42.0470100  33.5017250  70.8274610  41.1991700
  32.7916750  71.7987520  42.1180280  34.9247730  70.5144750  40.0578920
  34.8636130  69.5705970  39.9109940  35.7039760  70.6224840  40.6032380
  19.8528500  70.4853890  36.5234730  20.6107860  70.5982770  35.9498760
  19.3905670  71.3223090  36.4778160  26.3942310  72.5993160  39.5137040
  25.5816820  72.2250050  39.1732920  26.8983950  71.8438240  39.8158230
  30.8967290  69.2635610  40.7520110  31.4996660  69.8355820  41.2268630
  30.1560280  69.8275050  40.5294010  34.0401890  69.6657170  36.0260390
  34.2352520  70.5640620  36.2927820  33.2531760  69.4344250  36.5193340
  22.2253650  71.0117940  35.0636700  22.7546410  70.2247740  34.9344650
  22.8581970  71.6909130  35.2972230  24.4191490  70.7493080  38.1182090
  23.7894230  70.0480390  38.2852220  23.8796630  71.5097210  37.9015250
  24.5447050  70.0277060  50.5534580  24.2631320  70.5310660  49.7895400
  24.9266750  69.2298810  50.1876710  31.1462510  69.4430640  51.1315050
  31.0327960  69.7625250  52.0266570  31.9632250  69.8443150  50.8352330
  30.0520660  77.4623110  21.4949790  29.9714710  76.5477720  21.2241500
  29.6385080  77.9590180  20.7889500  28.1838700  79.2402130  23.3759060
  27.4080800  78.7602570  23.6657630  28.8351630  78.5607780  23.2015220
  22.2004530  79.5521940  24.2534820  21.3689410  79.2970650  24.6531330
  22.8085510  79.6232710  24.9892740  20.6096480  74.5123830  18.0377210
  19.7213180  74.8539800  17.9357090  20.8937670  74.3124150  17.1458040
  18.5729490  77.1129480  23.9216910  19.1445600  76.3451680  23.9220550
  18.5731030  77.4118240  23.0123520  19.8154360  72.5213840  25.7085840
  19.6357200  71.6239590  25.9888600  19.4134440  73.0685710  26.3832790
  28.6552860  74.7229700  23.6098150  29.0317680  73.8501580  23.4971820
  28.5572370  75.0588400  22.7188590  22.7857870  73.0955330  19.0715590
  22.8924620  73.9959060  19.3784350  21.8750230  73.0473300  18.7810240
  32.4376980  72.2180140  20.5426490  33.2586600  71.7276710  20.5851970
  32.4711060  72.8077800  21.2958330  20.4341030  75.0174340  24.3168180
  21.1151140  75.2812710  24.9355580  20.1189080  74.1775210  24.6506190
  24.6265600  76.0641700  23.4040770  25.1343820  76.5622670  24.0445790
  25.1578840  75.2876900  23.2280130  36.7276530  74.2346890  27.1070120
  36.0228700  74.6228600  26.5885230  36.9934450  74.9297180  27.7091050
  22.9101700  70.7040260  27.6704190  22.9120140  71.2212650  26.8650090
  22.0806010  70.2270440  27.6474120  32.6738460  74.1580520  23.3154030
  31.9694030  74.4465410  23.8957140  33.0350620  74.9680630  22.9553590
  22.5917030  72.4150220  25.6774640  22.9333840  73.2592270  25.3828510
  21.6532840  72.5633960  25.7939980  35.7425380  73.6035310  23.7063240
  34.7950290  73.6374290  23.8378670  36.0675370  74.4174260  24.0912600
  26.2744920  69.9032490  22.0019230  26.5819900  69.3479380  21.2854730
  25.3445620  70.0376950  21.8192220  28.6625680  77.9681320  18.7379350
  27.7354960  77.9018700  18.9667820  28.8150500  78.9061450  18.6234590
  28.6494760  74.2398320  15.7346510  27.7098430  74.4012280  15.8198970
  28.9678020  74.9584000  15.1882500  35.1707520  78.9216840  25.7125540
  34.3426150  78.9909930  25.2375670  35.7658000  79.5071150  25.2441370
  32.6922970  79.5301620  19.2414600  32.0735390  79.1921170  18.5940900
  32.6747420  78.8861380  19.9493790  32.1349530  75.7086160  26.6580410
  31.7220710  76.5339870  26.9120400  31.4025480  75.1231200  26.4656770
  24.2682320  78.4946060  21.5199080  23.8639320  77.7823310  21.0244980
  24.3545440  78.1499300  22.4087120  22.9810940  75.2689270  25.2998120
  23.5325530  75.3784610  24.5251370  23.4954450  75.6426870  26.0153350
  30.8687670  78.7688430  16.2487350  31.3080950  77.9310860  16.1025170
  31.5816090  79.4017830  16.3351490  22.6553670  78.7908630  28.9103460
  22.5161440  79.6631430  29.2790860  21.7735030  78.4481440  28.7651400
  34.4504810  70.0231240  14.5628390  34.1377470  70.1158070  15.4627460
  35.2117280  70.6012270  14.5125820  20.9686950  77.3891040  19.0205730
  20.8484550  78.1153130  18.4087000  20.6587840  76.6193950  18.5433640
  35.6606100  74.7602740  30.5402530  35.0450370  75.2682410  30.0117990
  35.3402520  73.8601070  30.4828470  23.4350610  70.7326110  22.4029400
  22.9918760  71.5135650  22.0713920  23.9935600  71.0556000  23.1100340
  27.7220420  73.5994630  28.0064720  27.2599790  73.8077650  28.8184660
  27.3198530  72.7853980  27.7035390  32.7224930  74.8203580  29.1361380
  31.8718520  74.5209330  29.4570450  32.5626720  75.0645590  28.2245200
  29.8174640  76.3205330  31.2360170  30.1428050  75.4869080  30.8962400
  30.6054970  76.8433850  31.3838500  26.5509430  70.3536810  17.2835230
  25.9263610  70.3496680  18.0088540  26.4639550  69.4867770  16.8871200
  25.4726510  71.2773440  24.2619000  25.7698840  72.1836270  24.1811020
  26.0212070  70.7892220  23.6478570  23.2264830  75.8559680  20.1310650
  23.0005750  75.6396850  21.0357270  22.4457360  76.2888140  19.7856620
  30.4562590  75.8623050  18.7301300  29.8571480  76.5858850  18.5464920
  31.0042200  75.7999830  17.9477750  25.6664040  76.7545260  30.7970920
  25.5707640  75.8139990  30.6471320  26.5096020  76.9760330  30.4018990
  29.0627460  74.4986590  20.7604580  29.4557030  74.8158790  19.9473270
  29.4244310  73.6198470  20.8749100  20.7974580  73.1658930  28.9504700
  20.4037970  74.0134140  29.1577480  20.1092980  72.5285300  29.1413340
  27.3719630  73.2493900  32.0201440  26.6817950  73.0566100  32.6547530
  28.1151930  73.5328540  32.5525740  18.0991630  71.0887390  22.9834780
  17.8104680  71.6590250  23.6959760  18.8437390  70.6091840  23.3466010
  18.2861860  75.0307510  14.1937500  18.2036530  75.9738270  14.3352490
  17.9344920  74.8882420  13.3149850  29.6482600  77.0892340  24.8555360
  28.9163720  77.5979150  25.2045460  29.2506940  76.2722320  24.5544140
  26.0859990  73.7646540  23.2607850  26.0896050  73.3236490  22.4112390
  26.9811110  74.0863870  23.3679670  21.9362370  73.6473030  22.2202060
  21.5962420  74.1248260  22.9769110  21.1739690  73.1938150  21.8603160
  26.1480140  74.7658620  16.2514610  26.2692960  74.7245100  17.2000430
  25.7628650  75.6282770  16.0961340  30.1108510  72.5426020  24.2678300
  30.1281250  72.9934670  25.1120150  29.8624090  71.6431660  24.4811740
  25.1601640  77.0759760  15.6497910  24.5918540  76.6278010  15.0233820
  25.8690640  77.4352540  15.1163060  33.5379260  69.9558200  30.1064680
  33.8625030  69.2247860  30.6322660  33.5735770  69.6371840  29.2045670
  26.3867960  77.8248320  25.0073260  26.7538090  77.3506890  25.7534600
  26.1973020  78.6989890  25.3481600  19.2508450  72.5692010  21.1366730
  18.9655370  72.2047680  21.9745350  19.1887310  71.8372470  20.5229870
  24.1767330  76.8656960  27.3257470  23.8724400  77.7448940  27.5507830
  25.1313790  76.9256750  27.3614910  28.9247040  71.4621270  17.8580100
  28.1111650  70.9634440  17.7825410  28.7308990  72.3019520  17.4416450
  31.6395430  75.8340920  16.1542260  32.5275050  76.1458150  15.9793600
  31.6100520  74.9613170  15.7622840  20.2331060  77.7059700  28.4728830
  19.8746000  78.3713550  29.0602170  19.9385620  76.8743250  28.8441450
  23.4344180  78.1643940  31.3568380  23.1344320  78.3101120  30.4596200
  24.2055420  77.6049230  31.2641770  33.9109700  77.1452760  15.6222120
  33.8273420  77.5766980  14.7718560  34.6303890  77.6051110  16.0548940
  18.7439110  77.7050960  15.0963430  19.6133960  77.9875760  15.3799350
  18.2529430  78.5186830  14.9812240  25.9073920  79.0924170  19.2171710
  26.3636700  79.9029420  19.4431900  25.5562130  78.7747310  20.0490200
  21.8085700  69.4361820  19.6894230  21.6800330  69.4279720  20.6379150
  20.9847720  69.7744910  19.3385240  18.8079630  71.1952940  29.1500930
  18.0938150  71.3949860  29.7553540  19.2274670  70.4192510  29.5215730
  30.3018410  73.6875250  26.9002380  30.6699230  72.8670460  27.2281950
  29.4416610  73.7477140  27.3158030  33.6680440  72.6432190  17.7089940
  33.0393600  72.7477860  16.9948170  33.1732360  72.8628970  18.4983820
  25.6364470  74.9218140  19.1247820  24.9280620  75.3904480  19.5661430
  25.9208950  74.2640150  19.7593010  27.2620400  76.3414840  27.1240350
  27.7605650  76.8160660  27.7892200  27.4043350  75.4178360  27.3310380
  29.6679900  71.6468800  20.5643610  29.5447680  71.6654930  19.6153120
  30.6164460  71.6947740  20.6842010  23.8399490  73.2303220  16.4998530
  24.6890020  73.6673370  16.4338720  23.4730760  73.5423480  17.3270590
  34.4687260  72.5582800  27.9668740  33.9660860  73.2988200  28.3062550
  35.2843920  72.9466800  27.6505530  32.7609270  77.8015980  21.4130100
  31.8199410  77.8166210  21.5877790  33.0753340  77.0151940  21.8590400
  22.7390910  79.4835580  14.9734060  23.5054180  79.3716940  15.5359490
  22.8165600  78.7873550  14.3210830  21.4337670  76.9160650  15.6566950
  21.5141260  75.9688160  15.7684350  22.3257420  77.2467530  15.7627610
  18.9608470  78.7375570  30.8923120  19.4647490  78.1582850  31.4639350
  18.2215890  79.0215800  31.4299490  20.9931550  76.8805160  31.7873190
  21.0336890  76.5819030  32.6958420  21.8477050  77.2812770  31.6280710
  24.7709940  79.4800710  16.9476700  25.1926360  79.3140580  17.7908090
  24.8960780  78.6700940  16.4531840  22.9337360  75.4597260  29.7547680
  22.4033820  74.9688210  29.1271020  23.6025430  75.8881460  29.2205610
  27.2837580  78.5038320  14.1953800  27.8043240  77.7887340  13.8294950
  27.9305980  79.1424190  14.4954310  32.3037590  77.2662880  31.5228020
  32.8858360  76.5115200  31.4348500  32.4799360  77.7970320  30.7459500
  23.4209660  72.4259630  29.8344970  23.3266530  71.8080380  29.1095840
  22.8407050  73.1525920  29.6074880  26.1871100  70.9832870  26.8672360
  25.7388400  71.0057130  26.0217910  25.5536300  70.5851890  27.4642660
  28.9294550  77.6103380  28.8722640  29.0490760  77.0144520  29.6117480
  29.7888550  77.6473070  28.4523940  31.2682450  78.1640570  27.4485150
  30.7417670  78.6883190  26.8450290  31.6113790  78.7967960  28.0794880
  23.6668840  75.5533940  13.8934860  23.4657900  74.6901300  14.2548200
  23.4960890  75.4667300  12.9556460  25.6963320  74.1524730  30.1298460
  26.2863010  73.8440580  30.8176280  24.8783560  73.6804480  30.2858360
  30.5156750  73.7690540  30.3631480  29.8272270  73.1072080  30.2981470
  31.2362770  73.3228810  30.8079940  31.1457150  70.3642170  16.4221740
  31.4259440  69.5210070  16.7781160  30.3722880  70.5965280  16.9360490
  22.4651640  72.6534560  13.8812740  22.7677540  72.6601990  12.9731890
  23.2046230  72.3032420  14.3780400  25.6836570  71.5969180  14.8668940
  25.3358570  70.9193170  14.2871390  25.8849340  71.1358690  15.6812330
  19.0242210  78.1256830  21.2633310  18.3691050  77.8568470  20.6193010
  19.8620160  78.0161310  20.8135290  31.9732650  72.9198120  15.4851800
  32.3917530  72.7329100  14.6448460  31.6668710  72.0677170  15.7954730
  35.4722380  77.8322260  19.1827600  35.0965980  77.0650190  18.7508890
  34.7425500  78.2144960  19.6702530  20.0618140  78.5109400  25.8036650
  20.4291180  78.4236800  26.6832670  19.4928960  77.7475950  25.7043510
  34.8622000  76.9793780  28.8167120  34.6308090  76.7506530  27.9165070
  35.1226550  77.8993330  28.7712010  19.6134140  75.4218490  29.7095070
  18.7190190  75.3885250  30.0488780  20.1531690  75.6205280  30.4746320
  33.3010070  72.2050210  31.5946820  34.1780250  72.2133610  31.9780820
  33.3130910  71.4681050  30.9839170  18.2380290  75.3355760  17.2058640
  17.3344370  75.5985960  17.0310300  18.7220910  75.6066930  16.4258600
  34.7473340  76.0579750  22.4834840  35.2710820  75.5642400  21.8525010
  35.3332760  76.1930110  23.2282410  34.9263060  76.1419620  26.0054390
  33.9765770  76.1083160  26.1199380  35.1076070  77.0519730  25.7704160
  20.7807500  74.3921300  15.1153020  21.4899200  73.9704520  14.6300300
  20.0647440  74.4596530  14.4836370  20.4281660  70.4460630  14.1555670
  21.1509790  70.9869570  14.4736890  20.7006180  70.1724050  13.2797210
  34.2373310  75.3153100  18.4227250  34.7332430  75.0823970  19.2076130
  34.0389380  74.4764940  18.0064890  20.1173850  69.6966820  24.0578290
  20.7650040  69.1464200  23.6173450  20.5375690  69.9509970  24.8794100
  35.6660470  73.9514050  20.9564930  35.5559750  73.7970090  21.8947200
  36.4268060  73.4234990  20.7140340  34.0126190  69.8908180  27.4147930
  34.6498410  70.5042320  27.7807120  34.1601080  69.9268840  26.4697160
  36.5550740  71.7821970  14.1971070  37.4800050  71.6503150  13.9889360
  36.5326530  71.8614790  15.1507520  36.6289230  72.5532630  16.8227780
  35.8340730  72.4877750  17.3520690  36.8332510  73.4883270  16.8113130
  19.8705850  69.8522490  26.8003610  19.5220670  70.3086310  27.5661790
  19.5393550  68.9579620  26.8826040  27.3830670  71.0434370  30.3223030
  27.3219560  71.6356200  31.0718440  28.3231050  70.9360330  30.1773290
  30.0205230  70.7004430  29.9615320  30.6345640  71.0183720  29.2996400
  30.5654790  70.2153020  30.5811180  20.5426490  69.3798690  30.0754380
  21.0909480  69.1986740  29.3120490  20.6081800  68.5892800  30.6110690
  30.7613270  69.2636570  26.2884610  29.8873110  69.5971680  26.0857540
  30.6524020  68.7909750  27.1136480  31.6685250  71.4707440  27.6726330
  31.3398610  70.6559200  27.2928060  32.6167550  71.4277250  27.5492020
  28.5088090  70.1806410  25.2277520  27.7259880  70.6551910  25.5074280
  28.2151020  69.2761240  25.1190700  33.0609160  70.8829510  23.2726610
  33.5017250  70.8274610  22.4248210  32.7916750  71.7987520  23.3436790
  34.9247730  70.5144750  21.2835430  34.8636130  69.5705970  21.1366450
  35.7039760  70.6224840  21.8288890  19.8528500  70.4853890  17.7491240
  20.6107860  70.5982770  17.1755270  19.3905670  71.3223090  17.7034670
  26.3942310  72.5993160  20.7393550  25.5816820  72.2250050  20.3989430
  26.8983950  71.8438240  21.0414740  30.8967290  69.2635610  21.9776620
  31.4996660  69.8355820  22.4525140  30.1560280  69.8275050  21.7550520
  34.0401890  69.6657170  17.2516900  34.2352520  70.5640620  17.5184330
  33.2531760  69.4344250  17.7449850  22.2253650  71.0117940  16.2893210
  22.7546410  70.2247740  16.1601160  22.8581970  71.6909130  16.5228740
  24.4191490  70.7493080  19.3438600  23.7894230  70.0480390  19.5108730
  23.8796630  71.5097210  19.1271760  24.5447050  70.0277060  31.7791090
  24.2631320  70.5310660  31.0151910  24.9266750  69.2298810  31.4133220
  31.1462510  69.4430640  32.3571560  31.0327960  69.7625250  33.2523080
  31.9632250  69.8443150  32.0608840  30.0520660  77.4623110   2.7206300
  29.9714710  76.5477720   2.4498010  29.6385080  77.9590180   2.0146010
  28.1838700  79.2402130   4.6015570  27.4080800  78.7602570   4.8914140
  28.8351630  78.5607780   4.4271730  22.2004530  79.5521940   5.4791330
  21.3689410  79.2970650   5.8787840  22.8085510  79.6232710   6.2149250
  18.5729490  77.1129480   5.1473420  19.1445600  76.3451680   5.1477060
  18.5731030  77.4118240   4.2380030  19.8154360  72.5213840   6.9342350
  19.6357200  71.6239590   7.2145110  19.4134440  73.0685710   7.6089300
  28.6552860  74.7229700   4.8354660  29.0317680  73.8501580   4.7228330
  28.5572370  75.0588400   3.9445100  32.4376980  72.2180140   1.7683000
  33.2586600  71.7276710   1.8108480  32.4711060  72.8077800   2.5214840
  20.4341030  75.0174340   5.5424690  21.1151140  75.2812710   6.1612090
  20.1189080  74.1775210   5.8762700  24.6265600  76.0641700   4.6297280
  25.1343820  76.5622670   5.2702300  25.1578840  75.2876900   4.4536640
  36.7276530  74.2346890   8.3326630  36.0228700  74.6228600   7.8141740
  36.9934450  74.9297180   8.9347560  22.9101700  70.7040260   8.8960700
  22.9120140  71.2212650   8.0906600  22.0806010  70.2270440   8.8730630
  32.6738460  74.1580520   4.5410540  31.9694030  74.4465410   5.1213650
  33.0350620  74.9680630   4.1810100  22.5917030  72.4150220   6.9031150
  22.9333840  73.2592270   6.6085020  21.6532840  72.5633960   7.0196490
  35.7425380  73.6035310   4.9319750  34.7950290  73.6374290   5.0635180
  36.0675370  74.4174260   5.3169110  26.2744920  69.9032490   3.2275740
  26.5819900  69.3479380   2.5111240  25.3445620  70.0376950   3.0448730
  35.1707520  78.9216840   6.9382050  34.3426150  78.9909930   6.4632180
  35.7658000  79.5071150   6.4697880  32.1349530  75.7086160   7.8836920
  31.7220710  76.5339870   8.1376910  31.4025480  75.1231200   7.6913280
  24.2682320  78.4946060   2.7455590  23.8639320  77.7823310   2.2501490
  24.3545440  78.1499300   3.6343630  22.9810940  75.2689270   6.5254630
  23.5325530  75.3784610   5.7507880  23.4954450  75.6426870   7.2409860
  22.6553670  78.7908630  10.1359970  22.5161440  79.6631430  10.5047370
  21.7735030  78.4481440   9.9907910  35.6606100  74.7602740  11.7659040
  35.0450370  75.2682410  11.2374500  35.3402520  73.8601070  11.7084980
  23.4350610  70.7326110   3.6285910  22.9918760  71.5135650   3.2970430
  23.9935600  71.0556000   4.3356850  27.7220420  73.5994630   9.2321230
  27.2599790  73.8077650  10.0441170  27.3198530  72.7853980   8.9291900
  32.7224930  74.8203580  10.3617890  31.8718520  74.5209330  10.6826960
  32.5626720  75.0645590   9.4501710  29.8174640  76.3205330  12.4616680
  30.1428050  75.4869080  12.1218910  30.6054970  76.8433850  12.6095010
  25.4726510  71.2773440   5.4875510  25.7698840  72.1836270   5.4067530
  26.0212070  70.7892220   4.8735080  25.6664040  76.7545260  12.0227430
  25.5707640  75.8139990  11.8727830  26.5096020  76.9760330  11.6275500
  20.7974580  73.1658930  10.1761210  20.4037970  74.0134140  10.3833990
  20.1092980  72.5285300  10.3669850  27.3719630  73.2493900  13.2457950
  26.6817950  73.0566100  13.8804040  28.1151930  73.5328540  13.7782250
  18.0991630  71.0887390   4.2091290  17.8104680  71.6590250   4.9216270
  18.8437390  70.6091840   4.5722520  29.6482600  77.0892340   6.0811870
  28.9163720  77.5979150   6.4301970  29.2506940  76.2722320   5.7800650
  26.0859990  73.7646540   4.4864360  26.0896050  73.3236490   3.6368900
  26.9811110  74.0863870   4.5936180  21.9362370  73.6473030   3.4458570
  21.5962420  74.1248260   4.2025620  21.1739690  73.1938150   3.0859670
  30.1108510  72.5426020   5.4934810  30.1281250  72.9934670   6.3376660
  29.8624090  71.6431660   5.7068250  33.5379260  69.9558200  11.3321190
  33.8625030  69.2247860  11.8579170  33.5735770  69.6371840  10.4302180
  26.3867960  77.8248320   6.2329770  26.7538090  77.3506890   6.9791110
  26.1973020  78.6989890   6.5738110  19.2508450  72.5692010   2.3623240
  18.9655370  72.2047680   3.2001860  19.1887310  71.8372470   1.7486380
  24.1767330  76.8656960   8.5513980  23.8724400  77.7448940   8.7764340
  25.1313790  76.9256750   8.5871420  20.2331060  77.7059700   9.6985340
  19.8746000  78.3713550  10.2858680  19.9385620  76.8743250  10.0697960
  23.4344180  78.1643940  12.5824890  23.1344320  78.3101120  11.6852710
  24.2055420  77.6049230  12.4898280  18.8079630  71.1952940  10.3757440
  18.0938150  71.3949860  10.9810050  19.2274670  70.4192510  10.7472240
  30.3018410  73.6875250   8.1258890  30.6699230  72.8670460   8.4538460
  29.4416610  73.7477140   8.5414540  27.2620400  76.3414840   8.3496860
  27.7605650  76.8160660   9.0148710  27.4043350  75.4178360   8.5566890
  34.4687260  72.5582800   9.1925250  33.9660860  73.2988200   9.5319060
  35.2843920  72.9466800   8.8762040  32.7609270  77.8015980   2.6386610
  31.8199410  77.8166210   2.8134300  33.0753340  77.0151940   3.0846910
  18.9608470  78.7375570  12.1179630  19.4647490  78.1582850  12.6895860
  18.2215890  79.0215800  12.6556000  20.9931550  76.8805160  13.0129700
  21.0336890  76.5819030  13.9214930  21.8477050  77.2812770  12.8537220
  22.9337360  75.4597260  10.9804190  22.4033820  74.9688210  10.3527530
  23.6025430  75.8881460  10.4462120  32.3037590  77.2662880  12.7484530
  32.8858360  76.5115200  12.6605010  32.4799360  77.7970320  11.9716010
  23.4209660  72.4259630  11.0601480  23.3266530  71.8080380  10.3352350
  22.8407050  73.1525920  10.8331390  26.1871100  70.9832870   8.0928870
  25.7388400  71.0057130   7.2474420  25.5536300  70.5851890   8.6899170
  28.9294550  77.6103380  10.0979150  29.0490760  77.0144520  10.8373990
  29.7888550  77.6473070   9.6780450  31.2682450  78.1640570   8.6741660
  30.7417670  78.6883190   8.0706800  31.6113790  78.7967960   9.3051390
  25.6963320  74.1524730  11.3554970  26.2863010  73.8440580  12.0432790
  24.8783560  73.6804480  11.5114870  30.5156750  73.7690540  11.5887990
  29.8272270  73.1072080  11.5237980  31.2362770  73.3228810  12.0336450
  19.0242210  78.1256830   2.4889820  18.3691050  77.8568470   1.8449520
  19.8620160  78.0161310   2.0391800  20.0618140  78.5109400   7.0293160
  20.4291180  78.4236800   7.9089180  19.4928960  77.7475950   6.9300020
  34.8622000  76.9793780  10.0423630  34.6308090  76.7506530   9.1421580
  35.1226550  77.8993330   9.9968520  19.6134140  75.4218490  10.9351580
  18.7190190  75.3885250  11.2745290  20.1531690  75.6205280  11.7002830
  33.3010070  72.2050210  12.8203330  34.1780250  72.2133610  13.2037330
  33.3130910  71.4681050  12.2095680  34.7473340  76.0579750   3.7091350
  35.2710820  75.5642400   3.0781520  35.3332760  76.1930110   4.4538920
  34.9263060  76.1419620   7.2310900  33.9765770  76.1083160   7.3455890
  35.1076070  77.0519730   6.9960670  20.1173850  69.6966820   5.2834800
  20.7650040  69.1464200   4.8429960  20.5375690  69.9509970   6.1050610
  35.6660470  73.9514050   2.1821440  35.5559750  73.7970090   3.1203710
  36.4268060  73.4234990   1.9396850  34.0126190  69.8908180   8.6404440
  34.6498410  70.5042320   9.0063630  34.1601080  69.9268840   7.6953670
  19.8705850  69.8522490   8.0260120  19.5220670  70.3086310   8.7918300
  19.5393550  68.9579620   8.1082550  27.3830670  71.0434370  11.5479540
  27.3219560  71.6356200  12.2974950  28.3231050  70.9360330  11.4029800
  30.0205230  70.7004430  11.1871830  30.6345640  71.0183720  10.5252910
  30.5654790  70.2153020  11.8067690  20.5426490  69.3798690  11.3010890
  21.0909480  69.1986740  10.5377000  20.6081800  68.5892800  11.8367200
  30.7613270  69.2636570   7.5141120  29.8873110  69.5971680   7.3114050
  30.6524020  68.7909750   8.3392990  31.6685250  71.4707440   8.8982840
  31.3398610  70.6559200   8.5184570  32.6167550  71.4277250   8.7748530
  28.5088090  70.1806410   6.4534030  27.7259880  70.6551910   6.7330790
  28.2151020  69.2761240   6.3447210  33.0609160  70.8829510   4.4983120
  33.5017250  70.8274610   3.6504720  32.7916750  71.7987520   4.5693300
  34.9247730  70.5144750   2.5091940  34.8636130  69.5705970   2.3622960
  35.7039760  70.6224840   3.0545400  30.8967290  69.2635610   3.2033130
  31.4996660  69.8355820   3.6781650  30.1560280  69.8275050   2.9807030
  24.5447050  70.0277060  13.0047600  24.2631320  70.5310660  12.2408420
  24.9266750  69.2298810  12.6389730  31.1462510  69.4430640  13.5828070
  31.0327960  69.7625250  14.4779590  31.9632250  69.8443150  13.2865350
  30.0520660  58.6879620  59.0436770  29.9714710  57.7734230  58.7728480
  29.6385080  59.1846690  58.3376480  28.1838700  60.4658640  60.9246040
  27.4080800  59.9859080  61.2144610  28.8351630  59.7864290  60.7502200
  22.2004530  60.7778450  61.8021800  21.3689410  60.5227160  62.2018310
  22.8085510  60.8489220  62.5379720  32.2046130  64.8718830  59.7045170
  31.7427660  64.1006070  60.0332340  33.0171680  64.8984900  60.2097620
  22.1805790  64.8118540  61.9979820  22.4833830  63.9216280  61.8190040
  22.9249380  65.3688760  61.7702070  20.6096480  55.7380340  55.5864190
  19.7213180  56.0796310  55.4844070  20.8937670  55.5380660  54.6945020
  18.5729490  58.3385990  61.4703890  19.1445600  57.5708190  61.4707530
  18.5731030  58.6374750  60.5610500  28.4309440  67.1576840  59.3249160
  27.8120880  67.6134340  58.7543600  29.2861220  67.3128300  58.9238860
  27.6247690  63.1415830  60.9316200  27.5555970  62.2005770  60.7705330
  28.3867550  63.2317240  61.5038770  28.6552860  55.9486210  61.1585130
  29.0317680  55.0758090  61.0458800  28.5572370  56.2844910  60.2675570
  22.7857870  54.3211840  56.6202570  22.8924620  55.2215570  56.9271330
  21.8750230  54.2729810  56.3297220  32.4376980  53.4436650  58.0913470
  33.2586600  52.9533220  58.1338950  32.4711060  54.0334310  58.8445310
  20.4341030  56.2430850  61.8655160  21.1151140  56.5069220  62.4842560
  20.1189080  55.4031720  62.1993170  24.6265600  57.2898210  60.9527750
  25.1343820  57.7879180  61.5932770  25.1578840  56.5133410  60.7767110
  29.2972790  62.0416080  56.7181070  28.6790060  62.5065530  56.1543790
  29.8096040  62.7343560  57.1350580  32.6738460  55.3837030  60.8641010
  31.9694030  55.6721920  61.4444120  33.0350620  56.1937140  60.5040570
  18.6655990  62.7272610  54.0920700  18.2883970  63.2159710  53.3605600
  18.9229060  63.3997890  54.7227230  34.2901240  65.0012160  63.1268490
  33.6064760  65.6711270  63.1185160  34.8295530  65.1992810  62.3613350
  35.7425380  54.8291820  61.2550220  34.7950290  54.8630800  61.3865650
  36.0675370  55.6430770  61.6399580  26.2744920  51.1289000  59.5506210
  26.5819900  50.5735890  58.8341710  25.3445620  51.2633460  59.3679200
  31.8259980  66.8456290  61.8413670  31.8387140  66.4418580  60.9735930
  31.2735200  67.6203580  61.7375100  33.1205400  63.5672510  56.9303840
  33.0101730  62.6246840  57.0553260  33.1173650  63.9288150  57.8166600
  28.6625680  59.1937830  56.2866330  27.7354960  59.1275210  56.5154800
  28.8150500  60.1317960  56.1721570  28.6494760  55.4654830  53.2833490
  27.7098430  55.6268790  53.3685950  28.9678020  56.1840510  52.7369480
  35.1707520  60.1473350  63.2612520  34.3426150  60.2166440  62.7862650
  35.7658000  60.7327660  62.7928350  32.6922970  60.7558130  56.7901580
  32.0735390  60.4177680  56.1427880  32.6747420  60.1117890  57.4980770
  24.2682320  59.7202570  59.0686060  23.8639320  59.0079820  58.5731960
  24.3545440  59.3755810  59.9574100  24.7364020  63.4070130  61.2325270
  24.4392310  62.8015600  60.5533050  25.6863840  63.4447440  61.1214630
  30.8687670  59.9944940  53.7974330  31.3080950  59.1567370  53.6512150
  31.5816090  60.6274340  53.8838470  28.9783050  64.9341010  57.7655570
  29.4178960  65.6765340  57.3510960  28.9169940  65.1767580  58.6894530
  34.4504810  51.2487750  52.1115370  34.1377470  51.3414580  53.0114440
  35.2117280  51.8268780  52.0612800  20.9686950  58.6147550  56.5692710
  20.8484550  59.3409640  55.9573980  20.6587840  57.8450460  56.0920620
  18.6072320  61.7862690  62.3761350  18.6852740  61.9211460  61.4317070
  19.2214000  61.0778580  62.5689470  19.8519950  63.4862880  58.7867530
  19.4448030  63.6277470  57.9321130  20.7432960  63.2023040  58.5838740
  31.6453230  67.9210130  55.1218580  31.4854370  67.6313070  56.0200410
  31.4799940  67.1450260  54.5863810  24.1241610  67.7008660  56.8990200
  23.9484090  66.7844200  56.6858000  23.2697350  68.0595950  57.1388000
  31.3479360  65.4297690  53.6816580  30.6544520  65.4274980  53.0218860
  32.0902220  65.0057010  53.2510750  30.9129290  67.0560400  57.7565070
  31.3686240  66.2749780  58.0703690  31.2521810  67.7667220  58.3006250
  23.4350610  51.9582620  59.9516380  22.9918760  52.7392160  59.6200900
  23.9935600  52.2812510  60.6587320  26.5509430  51.5793320  54.8322210
  25.9263610  51.5753190  55.5575520  26.4639550  50.7124280  54.4358180
  25.4726510  52.5029950  61.8105980  25.7698840  53.4092780  61.7298000
  26.0212070  52.0148730  61.1965550  23.2264830  57.0816190  57.6797630
  23.0005750  56.8653360  58.5844250  22.4457360  57.5144650  57.3343600
  30.4562590  57.0879560  56.2788280  29.8571480  57.8115360  56.0951900
  31.0042200  57.0256340  55.4964730  29.0627460  55.7243100  58.3091560
  29.4557030  56.0415300  57.4960250  29.4244310  54.8454980  58.4236080
  18.0991630  52.3143900  60.5321760  17.8104680  52.8846760  61.2446740
  18.8437390  51.8348350  60.8952990  18.2861860  56.2564020  51.7424480
  18.2036530  57.1994780  51.8839470  17.9344920  56.1138930  50.8636830
  29.6482600  58.3148850  62.4042340  28.9163720  58.8235660  62.7532440
  29.2506940  57.4978830  62.1031120  26.0859990  54.9903050  60.8094830
  26.0896050  54.5493000  59.9599370  26.9811110  55.3120380  60.9166650
  21.9362370  54.8729540  59.7689040  21.5962420  55.3504770  60.5256090
  21.1739690  54.4194660  59.4090140  26.1480140  55.9915130  53.8001590
  26.2692960  55.9501610  54.7487410  25.7628650  56.8539280  53.6448320
  30.1108510  53.7682530  61.8165280  30.1281250  54.2191180  62.6607130
  29.8624090  52.8688170  62.0298720  25.1601640  58.3016270  53.1984890
  24.5918540  57.8534520  52.5720800  25.8690640  58.6609050  52.6650040
  19.2508450  53.7948520  58.6853710  18.9655370  53.4304190  59.5232330
  19.1887310  53.0628980  58.0716850  22.7049120  62.2974460  55.4711300
  21.9311380  61.7572080  55.3110020  23.4343750  61.7781070  55.1329060
  33.4637100  61.2939820  61.2637690  34.1836220  61.7895110  60.8733800
  33.2618920  60.6157710  60.6191560  28.9247040  52.6877780  55.4067080
  28.1111650  52.1890950  55.3312390  28.7308990  53.5276030  54.9903430
  31.6395430  57.0597430  53.7029240  32.5275050  57.3714660  53.5280580
  31.6100520  56.1869680  53.3109820  22.7486520  61.9654840  59.1090110
  23.2665190  61.1623100  59.0547000  22.2970540  61.9033980  59.9506940
  27.6356020  63.2321120  54.3817410  27.9771720  63.9763350  53.8860730
  26.8068730  63.5452240  54.7442240  33.9109700  58.3709270  53.1709100
  33.8273420  58.8023490  52.3205540  34.6303890  58.8307620  53.6035920
  34.9396950  65.2251530  55.8991230  34.2973110  64.5707150  56.1734950
  34.5527610  65.6306620  55.1231900  30.5183430  62.5536960  59.7462920
  30.8707250  61.9565090  59.0864290  29.6345760  62.2281190  59.9171170
  26.6046710  63.3134650  57.1533330  27.2917840  63.8603860  57.5340920
  25.8179130  63.8575380  57.1882940  18.7439110  58.9307470  52.6450410
  19.6133960  59.2132270  52.9286330  18.2529430  59.7443340  52.5299220
  25.9073920  60.3180680  56.7658690  26.3636700  61.1285930  56.9918880
  25.5562130  60.0003820  57.5977180  21.8085700  50.6618330  57.2381210
  21.6800330  50.6536230  58.1866130  20.9847720  51.0001420  56.8872220
  29.4838610  63.8319370  62.7128440  30.1260840  63.1312530  62.8260610
  30.0087960  64.6117810  62.5325330  33.3294330  64.1167990  52.4367580
  33.1031910  63.3998430  53.0292220  32.9390530  63.8680430  51.5989330
  19.1110360  68.1434850  53.2112040  19.4708000  68.7424190  52.5569310
  18.9702700  68.6894740  53.9847070  32.9110580  62.0339930  54.0981740
  32.6232280  62.4952620  54.8859620  33.7062750  61.5737700  54.3665960
  25.1278980  65.5266050  54.0285710  25.1189080  66.2595740  53.4130220
  24.2077340  65.2797630  54.1212670  20.7285620  60.7480940  54.7732470
  20.1213570  61.4879840  54.7827770  21.2034970  60.8380300  53.9470670
  33.6680440  53.8688700  55.2576920  33.0393600  53.9734370  54.5435150
  33.1732360  54.0885480  56.0470800  28.1138580  65.5894290  52.6910900
  28.2150560  65.3858280  51.7612880  27.2140320  65.3352570  52.8958680
  25.6364470  56.1474650  56.6734800  24.9280620  56.6160990  57.1148410
  25.9208950  55.4896660  57.3079990  29.6679900  52.8725310  58.1130590
  29.5447680  52.8911440  57.1640100  30.6164460  52.9204250  58.2328990
  26.7556690  68.1080610  57.3858570  27.0098190  68.0702000  56.4637940
  25.8069170  67.9813940  57.3786820  23.8399490  54.4559730  54.0485510
  24.6890020  54.8929880  53.9825700  23.4730760  54.7679990  54.8757570
  32.7609270  59.0272490  58.9617080  31.8199410  59.0422720  59.1364770
  33.0753340  58.2408450  59.4077380  22.7390910  60.7092090  52.5221040
  23.5054180  60.5973450  53.0846470  22.8165600  60.0130060  51.8697810
  21.4337670  58.1417160  53.2053930  21.5141260  57.1944670  53.3171330
  22.3257420  58.4724040  53.3114590  34.7634850  66.1981340  60.6371340
  34.8882270  67.0212510  61.1095150  35.6300410  65.9872070  60.2895490
  22.2352380  68.2912550  60.3088470  22.9714860  67.7428010  60.5797040
  22.6193300  69.1568560  60.1694460  19.1197860  64.3586120  56.1829980
  18.1937640  64.6007260  56.1735390  19.5854290  65.1860380  56.0614730
  25.3454690  67.4642860  52.1314040  26.1383300  67.7531690  51.6795830
  24.8259040  67.0335030  51.4526520  34.3984860  66.6912990  53.5550780
  34.1126370  66.2778130  52.7404960  34.2004410  67.6200700  53.4351300
  25.8632090  62.6846270  51.9956390  25.7582730  62.0698620  52.7217770
  25.6956310  62.1612160  51.2119400  29.1034820  61.7466300  52.5998380
  28.5544920  62.1935600  53.2441120  29.7254080  61.2415550  53.1236050
  24.7709940  60.7057220  54.4963680  25.1926360  60.5397090  55.3395070
  24.8960780  59.8957450  54.0018820  27.2837580  59.7294830  51.7440780
  27.8043240  59.0143850  51.3781930  27.9305980  60.3680700  52.0441290
  23.6668840  56.7790450  51.4421840  23.4657900  55.9157810  51.8035180
  23.4960890  56.6923810  50.5043440  31.1457150  51.5898680  53.9708720
  31.4259440  50.7466580  54.3268140  30.3722880  51.8221790  54.4847470
  22.4651640  53.8791070  51.4299720  22.7677540  53.8858500  50.5218870
  23.2046230  53.5288930  51.9267380  25.6836570  52.8225690  52.4155920
  25.3358570  52.1449680  51.8358370  25.8849340  52.3615200  53.2299310
  27.8485610  67.8106440  54.0342520  28.7436400  68.1491410  54.0561280
  27.8803240  67.0885850  53.4066800  21.4881770  63.1833490  52.2629520
  21.9256640  63.7263160  52.9187100  21.9729500  62.3580440  52.2725860
  18.7027570  65.9722520  59.7149780  19.0330580  65.1043580  59.4828420
  19.1318570  66.1781040  60.5454740  23.2989490  64.3031530  57.3751750
  22.9985030  64.1796500  58.2755660  23.1926980  63.4440120  56.9667480
  36.0681410  64.0827930  52.0778430  35.2374370  64.1504580  52.5485660
  36.2453240  64.9732050  51.7745290  35.5237870  60.8275410  54.5812630
  36.2856780  61.3972060  54.6872320  35.5392240  60.2602610  55.3520940
  19.0242210  59.3513340  58.8120290  18.3691050  59.0824980  58.1679990
  19.8620160  59.2417820  58.3622270  36.5297840  61.6825510  59.4254560
  36.9006670  60.8992830  59.0190530  37.1699770  62.3714610  59.2471860
  35.5757040  61.1209780  51.7385150  35.8505880  62.0288660  51.6104370
  35.3867780  61.0572310  52.6747140  31.9732650  54.1454630  53.0338780
  32.3917530  53.9585610  52.1935440  31.6668710  53.2933680  53.3441710
  35.4722380  59.0578770  56.7314580  35.0965980  58.2906700  56.2995870
  34.7425500  59.4401470  57.2189510  18.2380290  56.5612270  54.7545620
  17.3344370  56.8242470  54.5797280  18.7220910  56.8323440  53.9745580
  34.7473340  57.2836260  60.0321820  35.2710820  56.7898910  59.4011990
  35.3332760  57.4186620  60.7769390  20.7807500  55.6177810  52.6640000
  21.4899200  55.1961030  52.1787280  20.0647440  55.6853040  52.0323350
  20.4281660  51.6717140  51.7042650  21.1509790  52.2126080  52.0223870
  20.7006180  51.3980560  50.8284190  34.2373310  56.5409610  55.9714230
  34.7332430  56.3080480  56.7563110  34.0389380  55.7021450  55.5551870
  20.1173850  50.9223330  61.6065270  20.7650040  50.3720710  61.1660430
  20.5375690  51.1766480  62.4281080  35.6660470  55.1770560  58.5051910
  35.5559750  55.0226600  59.4434180  36.4268060  54.6491500  58.2627320
  36.5550740  53.0078480  51.7458050  37.4800050  52.8759660  51.5376340
  36.5326530  53.0871300  52.6994500  36.6289230  53.7789140  54.3714760
  35.8340730  53.7134260  54.9007670  36.8332510  54.7139780  54.3600110
  33.5707650  67.8180690  58.3653150  34.1666720  67.4965260  57.6887570
  33.8285800  67.3452510  59.1566420  34.1219860  68.4675990  62.1950880
  33.6622830  69.2191800  61.8208900  33.4932320  67.7482460  62.1365680
  24.5515580  66.7764230  61.3699010  25.0680600  66.1651590  60.8447270
  25.2012960  67.2793010  61.8610020  27.2911080  67.6672720  62.1967990
  27.5788890  67.4127020  61.3201000  27.8034300  67.1150080  62.7873560
  28.5088090  51.4062920  62.7764500  27.7259880  51.8808420  63.0561260
  28.2151020  50.5017750  62.6677680  33.0609160  52.1086020  60.8213590
  33.5017250  52.0531120  59.9735190  32.7916750  53.0244030  60.8923770
  34.9247730  51.7401260  58.8322410  34.8636130  50.7962480  58.6853430
  35.7039760  51.8481350  59.3775870  19.2300480  67.8793620  57.7946360
  19.0622520  67.2464300  58.4928250  18.3634990  68.0853020  57.4440550
  19.8528500  51.7110400  55.2978220  20.6107860  51.8239280  54.7242250
  19.3905670  52.5479600  55.2521650  26.3942310  53.8249670  58.2880530
  25.5816820  53.4506560  57.9476410  26.8983950  53.0694750  58.5901720
  30.8967290  50.4892120  59.5263600  31.4996660  51.0612330  60.0012120
  30.1560280  51.0531560  59.3037500  34.0401890  50.8913680  54.8003880
  34.2352520  51.7897130  55.0671310  33.2531760  50.6600760  55.2936830
  20.8363180  66.5726850  55.2396500  20.3110800  66.9534880  54.5358460
  20.7607760  67.1977620  55.9606210  22.2253650  52.2374450  53.8380190
  22.7546410  51.4504250  53.7088140  22.8581970  52.9165640  54.0715720
  24.4191490  51.9749590  56.8925580  23.7894230  51.2736900  57.0595710
  23.8796630  52.7353720  56.6758740  35.5928500  68.1314390  56.5610440
  35.7680690  67.4452130  55.9171360  34.8950070  68.6561440  56.1687110
  23.4356150  68.5209230  54.1145750  24.1674970  68.2368510  53.5669640
  23.6949820  68.2822510  55.0045130  22.5970940  64.6373960  54.1192080
  21.9679820  65.1059060  54.6677910  22.7118770  63.7923180  54.5538270
  22.2004530  60.7778450  43.0278310  21.3689410  60.5227160  43.4274820
  22.8085510  60.8489220  43.7636230  32.2046130  64.8718830  40.9301680
  31.7427660  64.1006070  41.2588850  33.0171680  64.8984900  41.4354130
  22.1805790  64.8118540  43.2236330  22.4833830  63.9216280  43.0446550
  22.9249380  65.3688760  42.9958580  20.6096480  55.7380340  36.8120700
  19.7213180  56.0796310  36.7100580  20.8937670  55.5380660  35.9201530
  18.5729490  58.3385990  42.6960400  19.1445600  57.5708190  42.6964040
  18.5731030  58.6374750  41.7867010  28.4309440  67.1576840  40.5505670
  27.8120880  67.6134340  39.9800110  29.2861220  67.3128300  40.1495370
  27.6247690  63.1415830  42.1572710  27.5555970  62.2005770  41.9961840
  28.3867550  63.2317240  42.7295280  19.8154360  53.7470350  44.4829330
  19.6357200  52.8496100  44.7632090  19.4134440  54.2942220  45.1576280
  20.4341030  56.2430850  43.0911670  21.1151140  56.5069220  43.7099070
  20.1189080  55.4031720  43.4249680  24.6265600  57.2898210  42.1784260
  25.1343820  57.7879180  42.8189280  25.1578840  56.5133410  42.0023620
  22.9101700  51.9296770  46.4447680  22.9120140  52.4469160  45.6393580
  22.0806010  51.4526950  46.4217610  24.1604550  61.5691950  44.6221180
  23.8273930  62.1960870  45.2642250  24.3371230  62.0953830  43.8422850
  22.5917030  53.6406730  44.4518130  22.9333840  54.4848780  44.1572000
  21.6532840  53.7890470  44.5683470  23.3723650  63.5372750  46.4370360
  23.9897650  64.2123830  46.1554810  22.5116770  63.9460730  46.3457860
  18.6655990  62.7272610  35.3177210  18.2883970  63.2159710  34.5862110
  18.9229060  63.3997890  35.9483740  34.2901240  65.0012160  44.3525000
  33.6064760  65.6711270  44.3441670  34.8295530  65.1992810  43.5869860
  31.8259980  66.8456290  43.0670180  31.8387140  66.4418580  42.1992440
  31.2735200  67.6203580  42.9631610  31.2245420  61.7486130  44.3952790
  31.6414210  61.5346240  43.5606250  31.9485240  62.0058920  44.9661410
  35.1707520  60.1473350  44.4869030  34.3426150  60.2166440  44.0119160
  35.7658000  60.7327660  44.0184860  24.2682320  59.7202570  40.2942570
  23.8639320  59.0079820  39.7988470  24.3545440  59.3755810  41.1830610
  24.7364020  63.4070130  42.4581780  24.4392310  62.8015600  41.7789560
  25.6863840  63.4447440  42.3471140  22.9810940  56.4945780  44.0741610
  23.5325530  56.6041120  43.2994860  23.4954450  56.8683380  44.7896840
  32.8249630  66.9802000  46.1204880  32.3480190  67.7874190  45.9277490
  32.1411420  66.3280330  46.2731090  23.8282450  63.1451820  49.1089580
  22.9310980  63.3691790  49.3562980  23.8535320  63.2686760  48.1600980
  22.6553670  60.0165140  47.6846950  22.5161440  60.8887940  48.0534350
  21.7735030  59.6737950  47.5394890  24.4534020  65.9586840  49.8932100
  24.4249450  66.3629790  49.0260530  24.2898990  65.0297200  49.7303700
  20.9686950  58.6147550  37.7949220  20.8484550  59.3409640  37.1830490
  20.6587840  57.8450460  37.3177130  36.4048840  66.7413940  51.1896270
  36.8808560  67.2196830  51.8685350  37.0256000  66.6731430  50.4641770
  18.6072320  61.7862690  43.6017860  18.6852740  61.9211460  42.6573580
  19.2214000  61.0778580  43.7945980  19.8519950  63.4862880  40.0124040
  19.4448030  63.6277470  39.1577640  20.7432960  63.2023040  39.8095250
  35.8082090  63.9326790  48.3496280  35.9345150  63.6938670  47.4313460
  35.8503470  63.1011330  48.8218360  29.6698830  67.6354790  46.9191090
  30.1843500  67.5462800  47.7213520  28.8267910  67.9814490  47.2119000
  24.1241610  67.7008660  38.1246710  23.9484090  66.7844200  37.9114510
  23.2697350  68.0595950  38.3644510  18.6631840  62.8276860  46.1412320
  18.8262880  62.3582220  45.3231690  19.1284290  62.3200420  46.8061160
  29.8174640  57.5461840  50.0103660  30.1428050  56.7125590  49.6705890
  30.6054970  58.0690360  50.1581990  23.2264830  57.0816190  38.9054140
  23.0005750  56.8653360  39.8100760  22.4457360  57.5144650  38.5600110
  25.6664040  57.9801770  49.5714410  25.5707640  57.0396500  49.4214810
  26.5096020  58.2016840  49.1762480  20.7974580  54.3915440  47.7248190
  20.4037970  55.2390650  47.9320970  20.1092980  53.7541810  47.9156830
  18.0991630  52.3143900  41.7578270  17.8104680  52.8846760  42.4703250
  18.8437390  51.8348350  42.1209500  18.2861860  56.2564020  32.9680990
  18.2036530  57.1994780  33.1095980  17.9344920  56.1138930  32.0893340
  21.9362370  54.8729540  40.9945550  21.5962420  55.3504770  41.7512600
  21.1739690  54.4194660  40.6346650  25.1601640  58.3016270  34.4241400
  24.5918540  57.8534520  33.7977310  25.8690640  58.6609050  33.8906550
  20.2370820  62.2028290  48.3008130  19.8525610  61.5621960  48.8991090
  20.5483010  62.9064410  48.8702860  26.3867960  59.0504830  43.7816750
  26.7538090  58.5763400  44.5278090  26.1973020  59.9246400  44.1225090
  19.2508450  53.7948520  39.9110220  18.9655370  53.4304190  40.7488840
  19.1887310  53.0628980  39.2973360  24.1767330  58.0913470  46.1000960
  23.8724400  58.9705450  46.3251320  25.1313790  58.1513260  46.1358400
  22.7049120  62.2974460  36.6967810  21.9311380  61.7572080  36.5366530
  23.4343750  61.7781070  36.3585570  33.4637100  61.2939820  42.4894200
  34.1836220  61.7895110  42.0990310  33.2618920  60.6157710  41.8448070
  28.8455900  61.3648880  48.3763200  28.7793210  60.4444550  48.1220790
  28.2161040  61.4624320  49.0907840  22.7486520  61.9654840  40.3346620
  23.2665190  61.1623100  40.2803510  22.2970540  61.9033980  41.1763450
  20.2331060  58.9316210  47.2472320  19.8746000  59.5970060  47.8345660
  19.9385620  58.0999760  47.6184940  23.4344180  59.3900450  50.1311870
  23.1344320  59.5357630  49.2339690  24.2055420  58.8305740  50.0385260
  28.7772630  64.1869450  48.1267000  28.7917170  63.2550410  47.9085910
  28.0697730  64.2729210  48.7656770  34.9883840  60.8276790  47.4735580
  34.2632030  61.4205570  47.2764970  35.5159300  60.8200330  46.6748950
  26.6046710  63.3134650  38.3789840  27.2917840  63.8603860  38.7597430
  25.8179130  63.8575380  38.4139450  18.7439110  58.9307470  33.8706920
  19.6133960  59.2132270  34.1542840  18.2529430  59.7443340  33.7555730
  28.2106530  65.8287020  45.2207500  28.8548750  66.0346400  45.8980920
  28.5735970  65.0675420  44.7678350  29.4838610  63.8319370  43.9384950
  30.1260840  63.1312530  44.0517120  30.0087960  64.6117810  43.7581840
  31.2576230  64.6314270  47.1421010  31.5932470  65.2180960  47.8198930
  30.3376570  64.5006980  47.3718800  19.1110360  68.1434850  34.4368550
  19.4708000  68.7424190  33.7825820  18.9702700  68.6894740  35.2103580
  18.8079630  52.4209450  47.9244420  18.0938150  52.6206370  48.5297030
  19.2274670  51.6449020  48.2959220  19.0952220  66.4089710  48.9110950
  19.2043340  65.4684450  48.7706340  18.4432780  66.6744460  48.2624680
  27.0864810  64.6805600  50.3109070  26.7661680  63.9614840  50.8554760
  26.4123170  65.3560670  50.3845130  25.1278980  65.5266050  35.2542220
  25.1189080  66.2595740  34.6386730  24.2077340  65.2797630  35.3469180
  20.7285620  60.7480940  35.9988980  20.1213570  61.4879840  36.0084280
  21.2034970  60.8380300  35.1727180  28.1138580  65.5894290  33.9167410
  28.2150560  65.3858280  32.9869390  27.2140320  65.3352570  34.1215190
  27.2620400  57.5671350  45.8983840  27.7605650  58.0417170  46.5635690
  27.4043350  56.6434870  46.1053870  26.7556690  68.1080610  38.6115080
  27.0098190  68.0702000  37.6894450  25.8069170  67.9813940  38.6043330
  22.7390910  60.7092090  33.7477550  23.5054180  60.5973450  34.3102980
  22.8165600  60.0130060  33.0954320  21.4337670  58.1417160  34.4310440
  21.5141260  57.1944670  34.5427840  22.3257420  58.4724040  34.5371100
  34.7634850  66.1981340  41.8627850  34.8882270  67.0212510  42.3351660
  35.6300410  65.9872070  41.5152000  22.2352380  68.2912550  41.5344980
  22.9714860  67.7428010  41.8053550  22.6193300  69.1568560  41.3950970
  19.1197860  64.3586120  37.4086490  18.1937640  64.6007260  37.3991900
  19.5854290  65.1860380  37.2871240  21.2410660  67.4758620  50.7230560
  22.0423390  67.7970670  51.1365960  20.7262480  67.1154200  51.4450470
  25.3454690  67.4642860  33.3570550  26.1383300  67.7531690  32.9052340
  24.8259040  67.0335030  32.6783030  30.0775290  63.5838490  50.6705970
  29.4713450  63.6070090  49.9301720  29.7729400  62.8521530  51.2073220
  31.5075660  67.3118780  49.2815380  32.4597410  67.2276800  49.2315620
  31.3603880  67.9760490  49.9549170  34.3984860  66.6912990  34.7807290
  34.1126370  66.2778130  33.9661470  34.2004410  67.6200700  34.6607810
  18.9608470  59.9632080  49.6666610  19.4647490  59.3839360  50.2382840
  18.2215890  60.2472310  50.2042980  25.8632090  62.6846270  33.2212900
  25.7582730  62.0698620  33.9474280  25.6956310  62.1612160  32.4375910
  26.0146410  61.3703070  49.2002130  25.2492080  61.9388070  49.1156800
  26.1962370  61.0779280  48.3070360  33.1569760  63.1008400  49.7577150
  33.8979230  63.4384160  49.2544610  32.3942440  63.2700460  49.2046920
  20.9931550  58.1061670  50.5616680  21.0336890  57.8075540  51.4701910
  21.8477050  58.5069280  50.4024200  24.7709940  60.7057220  35.7220190
  25.1926360  60.5397090  36.5651580  24.8960780  59.8957450  35.2275330
  22.9337360  56.6853770  48.5291170  22.4033820  56.1944720  47.9014510
  23.6025430  57.1137970  47.9949100  31.8315420  61.1523230  48.2932360
  32.2456440  61.3068310  49.1422780  30.8966420  61.2778450  48.4558140
  32.3037590  58.4919390  50.2971510  32.8858360  57.7371710  50.2091990
  32.4799360  59.0226830  49.5202990  23.4209660  53.6516140  48.6088460
  23.3266530  53.0336890  47.8839330  22.8407050  54.3782430  48.3818370
  26.1871100  52.2089380  45.6415850  25.7388400  52.2313640  44.7961400
  25.5536300  51.8108400  46.2386150  26.5930650  61.1043710  46.2628290
  27.0118760  61.9476440  46.0904530  25.6739280  61.2415750  46.0335070
  28.9294550  58.8359890  47.6466130  29.0490760  58.2401030  48.3860970
  29.7888550  58.8729580  47.2267430  31.2682450  59.3897080  46.2228640
  30.7417670  59.9139700  45.6193780  31.6113790  60.0224470  46.8538370
  24.4438070  67.4096720  47.3786020  23.9059160  68.1342780  47.0594720
  24.6972030  66.9327060  46.5883360  25.6963320  55.3781240  48.9041950
  26.2863010  55.0697090  49.5919770  24.8783560  54.9060990  49.0601850
  27.3000280  68.6447930  47.6372670  27.2258980  69.5483070  47.9445040
  26.3979120  68.3259830  47.6094740  27.8485610  67.8106440  35.2599030
  28.7436400  68.1491410  35.2817790  27.8803240  67.0885850  34.6323310
  21.4881770  63.1833490  33.4886030  21.9256640  63.7263160  34.1443610
  21.9729500  62.3580440  33.4982370  18.7027570  65.9722520  40.9406290
  19.0330580  65.1043580  40.7084930  19.1318570  66.1781040  41.7711250
  23.2989490  64.3031530  38.6008260  22.9985030  64.1796500  39.5012170
  23.1926980  63.4440120  38.1923990  19.1917780  66.8393110  43.6787920
  18.7548770  67.0193910  44.5112070  19.7595460  67.5967730  43.5369640
  34.8279960  66.3410110  47.9665230  34.2281950  66.4002670  47.2229150
  34.9573860  65.4015090  48.0962080  19.0242210  59.3513340  40.0376800
  18.3691050  59.0824980  39.3936500  19.8620160  59.2417820  39.5878780
  33.5131600  63.0662090  46.0641390  32.6991440  63.4959250  46.3267180
  33.9205800  63.6780500  45.4510440  20.0618140  59.7365910  44.5780140
  20.4291180  59.6493310  45.4576160  19.4928960  58.9732460  44.4787000
  34.8622000  58.2050290  47.5910610  34.6308090  57.9763040  46.6908560
  35.1226550  59.1249840  47.5455500  19.6134140  56.6475000  48.4838560
  18.7190190  56.6141760  48.8232270  20.1531690  56.8461790  49.2489810
  33.3010070  53.4306720  50.3690310  34.1780250  53.4390120  50.7524310
  33.3130910  52.6937560  49.7582660  18.2380290  56.5612270  35.9802130
  17.3344370  56.8242470  35.8053790  18.7220910  56.8323440  35.2002090
  20.7807500  55.6177810  33.8896510  21.4899200  55.1961030  33.4043790
  20.0647440  55.6853040  33.2579860  20.1173850  50.9223330  42.8321780
  20.7650040  50.3720710  42.3916940  20.5375690  51.1766480  43.6537590
  33.5707650  67.8180690  39.5909660  34.1666720  67.4965260  38.9144080
  33.8285800  67.3452510  40.3822930  19.8705850  51.0779000  45.5747100
  19.5220670  51.5342820  46.3405280  19.5393550  50.1836130  45.6569530
  21.4770220  64.2498600  49.7400290  21.4339850  63.8791510  50.6214750
  21.6081230  65.1876170  49.8802110  25.1776250  65.8058190  45.3410010
  24.9367610  66.0732750  44.4540530  26.1178890  65.9763920  45.3960870
  36.4380410  67.8252570  46.1420650  35.9438690  68.2221440  45.4247780
  35.8293700  67.2001780  46.5357930  20.5426490  50.6055200  48.8497870
  21.0909480  50.4243250  48.0863980  20.6081800  49.8149310  49.3854180
  21.3158250  67.1960850  46.8598070  20.7218570  67.0645550  47.5988110
  21.3082090  66.3598990  46.3940170  34.1219860  68.4675990  43.4207390
  33.6622830  69.2191800  43.0465410  33.4932320  67.7482460  43.3622190
  20.9470480  64.5619230  45.8106110  20.2204540  63.9424520  45.7432060
  21.0079630  64.9559840  44.9404190  24.5515580  66.7764230  42.5955520
  25.0680600  66.1651590  42.0703780  25.2012960  67.2793010  43.0866530
  27.2911080  67.6672720  43.4224500  27.5788890  67.4127020  42.5457510
  27.8034300  67.1150080  44.0130070  19.2300480  67.8793620  39.0202870
  19.0622520  67.2464300  39.7184760  18.3634990  68.0853020  38.6697060
  19.8528500  51.7110400  36.5234730  20.6107860  51.8239280  35.9498760
  19.3905670  52.5479600  36.4778160  20.8363180  66.5726850  36.4653010
  20.3110800  66.9534880  35.7614970  20.7607760  67.1977620  37.1862720
  27.3583440  68.5888820  50.7892700  28.2850750  68.3533090  50.8328660
  27.3433870  69.4160820  50.3078730  24.5447050  51.2533570  50.5534580
  24.2631320  51.7567170  49.7895400  24.9266750  50.4555320  50.1876710
  23.4356150  68.5209230  35.3402260  24.1674970  68.2368510  34.7926150
  23.6949820  68.2822510  36.2301640  22.5970940  64.6373960  35.3448590
  21.9679820  65.1059060  35.8934420  22.7118770  63.7923180  35.7794780
  33.9261000  67.8158680  50.6133740  34.7186320  67.3207910  50.4059700
  34.2194150  68.4948820  51.2209350  30.0520660  58.6879620  21.4949790
  29.9714710  57.7734230  21.2241500  29.6385080  59.1846690  20.7889500
  28.1838700  60.4658640  23.3759060  27.4080800  59.9859080  23.6657630
  28.8351630  59.7864290  23.2015220  22.2004530  60.7778450  24.2534820
  21.3689410  60.5227160  24.6531330  22.8085510  60.8489220  24.9892740
  32.2046130  64.8718830  22.1558190  31.7427660  64.1006070  22.4845360
  33.0171680  64.8984900  22.6610640  22.1805790  64.8118540  24.4492840
  22.4833830  63.9216280  24.2703060  22.9249380  65.3688760  24.2215090
  20.6096480  55.7380340  18.0377210  19.7213180  56.0796310  17.9357090
  20.8937670  55.5380660  17.1458040  18.5729490  58.3385990  23.9216910
  19.1445600  57.5708190  23.9220550  18.5731030  58.6374750  23.0123520
  28.4309440  67.1576840  21.7762180  27.8120880  67.6134340  21.2056620
  29.2861220  67.3128300  21.3751880  27.6247690  63.1415830  23.3829220
  27.5555970  62.2005770  23.2218350  28.3867550  63.2317240  23.9551790
  19.8154360  53.7470350  25.7085840  19.6357200  52.8496100  25.9888600
  19.4134440  54.2942220  26.3832790  22.7857870  54.3211840  19.0715590
  22.8924620  55.2215570  19.3784350  21.8750230  54.2729810  18.7810240
  20.4341030  56.2430850  24.3168180  21.1151140  56.5069220  24.9355580
  20.1189080  55.4031720  24.6506190  29.2972790  62.0416080  19.1694090
  28.6790060  62.5065530  18.6056810  29.8096040  62.7343560  19.5863600
  24.1604550  61.5691950  25.8477690  23.8273930  62.1960870  26.4898760
  24.3371230  62.0953830  25.0679360  23.3723650  63.5372750  27.6626870
  23.9897650  64.2123830  27.3811320  22.5116770  63.9460730  27.5714370
  18.6655990  62.7272610  16.5433720  18.2883970  63.2159710  15.8118620
  18.9229060  63.3997890  17.1740250  34.2901240  65.0012160  25.5781510
  33.6064760  65.6711270  25.5698180  34.8295530  65.1992810  24.8126370
  31.8259980  66.8456290  24.2926690  31.8387140  66.4418580  23.4248950
  31.2735200  67.6203580  24.1888120  33.1205400  63.5672510  19.3816860
  33.0101730  62.6246840  19.5066280  33.1173650  63.9288150  20.2679620
  28.6625680  59.1937830  18.7379350  27.7354960  59.1275210  18.9667820
  28.8150500  60.1317960  18.6234590  28.6494760  55.4654830  15.7346510
  27.7098430  55.6268790  15.8198970  28.9678020  56.1840510  15.1882500
  32.6922970  60.7558130  19.2414600  32.0735390  60.4177680  18.5940900
  32.6747420  60.1117890  19.9493790  24.2682320  59.7202570  21.5199080
  23.8639320  59.0079820  21.0244980  24.3545440  59.3755810  22.4087120
  24.7364020  63.4070130  23.6838290  24.4392310  62.8015600  23.0046070
  25.6863840  63.4447440  23.5727650  32.8249630  66.9802000  27.3461390
  32.3480190  67.7874190  27.1534000  32.1411420  66.3280330  27.4987600
  23.8282450  63.1451820  30.3346090  22.9310980  63.3691790  30.5819490
  23.8535320  63.2686760  29.3857490  30.8687670  59.9944940  16.2487350
  31.3080950  59.1567370  16.1025170  31.5816090  60.6274340  16.3351490
  22.6553670  60.0165140  28.9103460  22.5161440  60.8887940  29.2790860
  21.7735030  59.6737950  28.7651400  28.9783050  64.9341010  20.2168590
  29.4178960  65.6765340  19.8023980  28.9169940  65.1767580  21.1407550
  24.4534020  65.9586840  31.1188610  24.4249450  66.3629790  30.2517040
  24.2898990  65.0297200  30.9560210  34.4504810  51.2487750  14.5628390
  34.1377470  51.3414580  15.4627460  35.2117280  51.8268780  14.5125820
  20.9686950  58.6147550  19.0205730  20.8484550  59.3409640  18.4087000
  20.6587840  57.8450460  18.5433640  18.6072320  61.7862690  24.8274370
  18.6852740  61.9211460  23.8830090  19.2214000  61.0778580  25.0202490
  19.8519950  63.4862880  21.2380550  19.4448030  63.6277470  20.3834150
  20.7432960  63.2023040  21.0351760  29.6698830  67.6354790  28.1447600
  30.1843500  67.5462800  28.9470030  28.8267910  67.9814490  28.4375510
  31.6453230  67.9210130  17.5731600  31.4854370  67.6313070  18.4713430
  31.4799940  67.1450260  17.0376830  24.1241610  67.7008660  19.3503220
  23.9484090  66.7844200  19.1371020  23.2697350  68.0595950  19.5901020
  31.3479360  65.4297690  16.1329600  30.6544520  65.4274980  15.4731880
  32.0902220  65.0057010  15.7023770  30.9129290  67.0560400  20.2078090
  31.3686240  66.2749780  20.5216710  31.2521810  67.7667220  20.7519270
  18.6631840  62.8276860  27.3668830  18.8262880  62.3582220  26.5488200
  19.1284290  62.3200420  28.0317670  23.4350610  51.9582620  22.4029400
  22.9918760  52.7392160  22.0713920  23.9935600  52.2812510  23.1100340
  26.5509430  51.5793320  17.2835230  25.9263610  51.5753190  18.0088540
  26.4639550  50.7124280  16.8871200  23.2264830  57.0816190  20.1310650
  23.0005750  56.8653360  21.0357270  22.4457360  57.5144650  19.7856620
  30.4562590  57.0879560  18.7301300  29.8571480  57.8115360  18.5464920
  31.0042200  57.0256340  17.9477750  29.0627460  55.7243100  20.7604580
  29.4557030  56.0415300  19.9473270  29.4244310  54.8454980  20.8749100
  18.0991630  52.3143900  22.9834780  17.8104680  52.8846760  23.6959760
  18.8437390  51.8348350  23.3466010  18.2861860  56.2564020  14.1937500
  18.2036530  57.1994780  14.3352490  17.9344920  56.1138930  13.3149850
  29.6482600  58.3148850  24.8555360  28.9163720  58.8235660  25.2045460
  29.2506940  57.4978830  24.5544140  21.9362370  54.8729540  22.2202060
  21.5962420  55.3504770  22.9769110  21.1739690  54.4194660  21.8603160
  26.1480140  55.9915130  16.2514610  26.2692960  55.9501610  17.2000430
  25.7628650  56.8539280  16.0961340  25.1601640  58.3016270  15.6497910
  24.5918540  57.8534520  15.0233820  25.8690640  58.6609050  15.1163060
  20.2370820  62.2028290  29.5264640  19.8525610  61.5621960  30.1247600
  20.5483010  62.9064410  30.0959370  19.2508450  53.7948520  21.1366730
  18.9655370  53.4304190  21.9745350  19.1887310  53.0628980  20.5229870
  22.7049120  62.2974460  17.9224320  21.9311380  61.7572080  17.7623040
  23.4343750  61.7781070  17.5842080  28.9247040  52.6877780  17.8580100
  28.1111650  52.1890950  17.7825410  28.7308990  53.5276030  17.4416450
  28.8455900  61.3648880  29.6019710  28.7793210  60.4444550  29.3477300
  28.2161040  61.4624320  30.3164350  31.6395430  57.0597430  16.1542260
  32.5275050  57.3714660  15.9793600  31.6100520  56.1869680  15.7622840
  22.7486520  61.9654840  21.5603130  23.2665190  61.1623100  21.5060020
  22.2970540  61.9033980  22.4019960  27.6356020  63.2321120  16.8330430
  27.9771720  63.9763350  16.3373750  26.8068730  63.5452240  17.1955260
  20.2331060  58.9316210  28.4728830  19.8746000  59.5970060  29.0602170
  19.9385620  58.0999760  28.8441450  28.7772630  64.1869450  29.3523510
  28.7917170  63.2550410  29.1342420  28.0697730  64.2729210  29.9913280
  33.9109700  58.3709270  15.6222120  33.8273420  58.8023490  14.7718560
  34.6303890  58.8307620  16.0548940  34.9396950  65.2251530  18.3504250
  34.2973110  64.5707150  18.6247970  34.5527610  65.6306620  17.5744920
  30.5183430  62.5536960  22.1975940  30.8707250  61.9565090  21.5377310
  29.6345760  62.2281190  22.3684190  26.6046710  63.3134650  19.6046350
  27.2917840  63.8603860  19.9853940  25.8179130  63.8575380  19.6395960
  18.7439110  58.9307470  15.0963430  19.6133960  59.2132270  15.3799350
  18.2529430  59.7443340  14.9812240  25.9073920  60.3180680  19.2171710
  26.3636700  61.1285930  19.4431900  25.5562130  60.0003820  20.0490200
  28.2106530  65.8287020  26.4464010  28.8548750  66.0346400  27.1237430
  28.5735970  65.0675420  25.9934860  21.8085700  50.6618330  19.6894230
  21.6800330  50.6536230  20.6379150  20.9847720  51.0001420  19.3385240
  29.4838610  63.8319370  25.1641460  30.1260840  63.1312530  25.2773630
  30.0087960  64.6117810  24.9838350  33.3294330  64.1167990  14.8880600
  33.1031910  63.3998430  15.4805240  32.9390530  63.8680430  14.0502350
  31.2576230  64.6314270  28.3677520  31.5932470  65.2180960  29.0455440
  30.3376570  64.5006980  28.5975310  19.1110360  68.1434850  15.6625060
  19.4708000  68.7424190  15.0082330  18.9702700  68.6894740  16.4360090
  18.8079630  52.4209450  29.1500930  18.0938150  52.6206370  29.7553540
  19.2274670  51.6449020  29.5215730  32.9110580  62.0339930  16.5494760
  32.6232280  62.4952620  17.3372640  33.7062750  61.5737700  16.8178980
  19.0952220  66.4089710  30.1367460  19.2043340  65.4684450  29.9962850
  18.4432780  66.6744460  29.4881190  27.0864810  64.6805600  31.5365580
  26.7661680  63.9614840  32.0811270  26.4123170  65.3560670  31.6101640
  25.1278980  65.5266050  16.4798730  25.1189080  66.2595740  15.8643240
  24.2077340  65.2797630  16.5725690  20.7285620  60.7480940  17.2245490
  20.1213570  61.4879840  17.2340790  21.2034970  60.8380300  16.3983690
  33.6680440  53.8688700  17.7089940  33.0393600  53.9734370  16.9948170
  33.1732360  54.0885480  18.4983820  28.1138580  65.5894290  15.1423920
  28.2150560  65.3858280  14.2125900  27.2140320  65.3352570  15.3471700
  25.6364470  56.1474650  19.1247820  24.9280620  56.6160990  19.5661430
  25.9208950  55.4896660  19.7593010  26.7556690  68.1080610  19.8371590
  27.0098190  68.0702000  18.9150960  25.8069170  67.9813940  19.8299840
  23.8399490  54.4559730  16.4998530  24.6890020  54.8929880  16.4338720
  23.4730760  54.7679990  17.3270590  32.7609270  59.0272490  21.4130100
  31.8199410  59.0422720  21.5877790  33.0753340  58.2408450  21.8590400
  22.7390910  60.7092090  14.9734060  23.5054180  60.5973450  15.5359490
  22.8165600  60.0130060  14.3210830  21.4337670  58.1417160  15.6566950
  21.5141260  57.1944670  15.7684350  22.3257420  58.4724040  15.7627610
  34.7634850  66.1981340  23.0884360  34.8882270  67.0212510  23.5608170
  35.6300410  65.9872070  22.7408510  22.2352380  68.2912550  22.7601490
  22.9714860  67.7428010  23.0310060  22.6193300  69.1568560  22.6207480
  19.1197860  64.3586120  18.6343000  18.1937640  64.6007260  18.6248410
  19.5854290  65.1860380  18.5127750  21.2410660  67.4758620  31.9487070
  22.0423390  67.7970670  32.3622470  20.7262480  67.1154200  32.6706980
  25.3454690  67.4642860  14.5827060  26.1383300  67.7531690  14.1308850
  24.8259040  67.0335030  13.9039540  31.5075660  67.3118780  30.5071890
  32.4597410  67.2276800  30.4572130  31.3603880  67.9760490  31.1805680
  34.3984860  66.6912990  16.0063800  34.1126370  66.2778130  15.1917980
  34.2004410  67.6200700  15.8864320  18.9608470  59.9632080  30.8923120
  19.4647490  59.3839360  31.4639350  18.2215890  60.2472310  31.4299490
  25.8632090  62.6846270  14.4469410  25.7582730  62.0698620  15.1730790
  25.6956310  62.1612160  13.6632420  26.0146410  61.3703070  30.4258640
  25.2492080  61.9388070  30.3413310  26.1962370  61.0779280  29.5326870
  29.1034820  61.7466300  15.0511400  28.5544920  62.1935600  15.6954140
  29.7254080  61.2415550  15.5749070  24.7709940  60.7057220  16.9476700
  25.1926360  60.5397090  17.7908090  24.8960780  59.8957450  16.4531840
  27.2837580  59.7294830  14.1953800  27.8043240  59.0143850  13.8294950
  27.9305980  60.3680700  14.4954310  26.5930650  61.1043710  27.4884800
  27.0118760  61.9476440  27.3161040  25.6739280  61.2415750  27.2591580
  23.6668840  56.7790450  13.8934860  23.4657900  55.9157810  14.2548200
  23.4960890  56.6923810  12.9556460  24.4438070  67.4096720  28.6042530
  23.9059160  68.1342780  28.2851230  24.6972030  66.9327060  27.8139870
  31.1457150  51.5898680  16.4221740  31.4259440  50.7466580  16.7781160
  30.3722880  51.8221790  16.9360490  22.4651640  53.8791070  13.8812740
  22.7677540  53.8858500  12.9731890  23.2046230  53.5288930  14.3780400
  27.3000280  68.6447930  28.8629180  27.2258980  69.5483070  29.1701550
  26.3979120  68.3259830  28.8351250  25.6836570  52.8225690  14.8668940
  25.3358570  52.1449680  14.2871390  25.8849340  52.3615200  15.6812330
  27.8485610  67.8106440  16.4855540  28.7436400  68.1491410  16.5074300
  27.8803240  67.0885850  15.8579820  21.4881770  63.1833490  14.7142540
  21.9256640  63.7263160  15.3700120  21.9729500  62.3580440  14.7238880
  18.7027570  65.9722520  22.1662800  19.0330580  65.1043580  21.9341440
  19.1318570  66.1781040  22.9967760  23.2989490  64.3031530  19.8264770
  22.9985030  64.1796500  20.7268680  23.1926980  63.4440120  19.4180500
  19.1917780  66.8393110  24.9044430  18.7548770  67.0193910  25.7368580
  19.7595460  67.5967730  24.7626150  36.0681410  64.0827930  14.5291450
  35.2374370  64.1504580  14.9998680  36.2453240  64.9732050  14.2258310
  35.5237870  60.8275410  17.0325650  36.2856780  61.3972060  17.1385340
  35.5392240  60.2602610  17.8033960  19.0242210  59.3513340  21.2633310
  18.3691050  59.0824980  20.6193010  19.8620160  59.2417820  20.8135290
  36.5297840  61.6825510  21.8767580  36.9006670  60.8992830  21.4703550
  37.1699770  62.3714610  21.6984880  33.5131600  63.0662090  27.2897900
  32.6991440  63.4959250  27.5523690  33.9205800  63.6780500  26.6766950
  35.5757040  61.1209780  14.1898170  35.8505880  62.0288660  14.0617390
  35.3867780  61.0572310  15.1260160  31.9732650  54.1454630  15.4851800
  32.3917530  53.9585610  14.6448460  31.6668710  53.2933680  15.7954730
  20.0618140  59.7365910  25.8036650  20.4291180  59.6493310  26.6832670
  19.4928960  58.9732460  25.7043510  18.2380290  56.5612270  17.2058640
  17.3344370  56.8242470  17.0310300  18.7220910  56.8323440  16.4258600
  20.7807500  55.6177810  15.1153020  21.4899200  55.1961030  14.6300300
  20.0647440  55.6853040  14.4836370  20.4281660  51.6717140  14.1555670
  21.1509790  52.2126080  14.4736890  20.7006180  51.3980560  13.2797210
  34.2373310  56.5409610  18.4227250  34.7332430  56.3080480  19.2076130
  34.0389380  55.7021450  18.0064890  20.1173850  50.9223330  24.0578290
  20.7650040  50.3720710  23.6173450  20.5375690  51.1766480  24.8794100
  36.5550740  53.0078480  14.1971070  37.4800050  52.8759660  13.9889360
  36.5326530  53.0871300  15.1507520  36.6289230  53.7789140  16.8227780
  35.8340730  53.7134260  17.3520690  36.8332510  54.7139780  16.8113130
  33.5707650  67.8180690  20.8166170  34.1666720  67.4965260  20.1400590
  33.8285800  67.3452510  21.6079440  19.8705850  51.0779000  26.8003610
  19.5220670  51.5342820  27.5661790  19.5393550  50.1836130  26.8826040
  21.4770220  64.2498600  30.9656800  21.4339850  63.8791510  31.8471260
  21.6081230  65.1876170  31.1058620  25.1776250  65.8058190  26.5666520
  24.9367610  66.0732750  25.6797040  26.1178890  65.9763920  26.6217380
  36.4380410  67.8252570  27.3677160  35.9438690  68.2221440  26.6504290
  35.8293700  67.2001780  27.7614440  20.5426490  50.6055200  30.0754380
  21.0909480  50.4243250  29.3120490  20.6081800  49.8149310  30.6110690
  21.3158250  67.1960850  28.0854580  20.7218570  67.0645550  28.8244620
  21.3082090  66.3598990  27.6196680  34.1219860  68.4675990  24.6463900
  33.6622830  69.2191800  24.2721920  33.4932320  67.7482460  24.5878700
  20.9470480  64.5619230  27.0362620  20.2204540  63.9424520  26.9688570
  21.0079630  64.9559840  26.1660700  24.5515580  66.7764230  23.8212030
  25.0680600  66.1651590  23.2960290  25.2012960  67.2793010  24.3123040
  27.2911080  67.6672720  24.6481010  27.5788890  67.4127020  23.7714020
  27.8034300  67.1150080  25.2386580  19.2300480  67.8793620  20.2459380
  19.0622520  67.2464300  20.9441270  18.3634990  68.0853020  19.8953570
  19.8528500  51.7110400  17.7491240  20.6107860  51.8239280  17.1755270
  19.3905670  52.5479600  17.7034670  20.8363180  66.5726850  17.6909520
  20.3110800  66.9534880  16.9871480  20.7607760  67.1977620  18.4119230
  22.2253650  52.2374450  16.2893210  22.7546410  51.4504250  16.1601160
  22.8581970  52.9165640  16.5228740  24.4191490  51.9749590  19.3438600
  23.7894230  51.2736900  19.5108730  23.8796630  52.7353720  19.1271760
  27.3583440  68.5888820  32.0149210  28.2850750  68.3533090  32.0585170
  27.3433870  69.4160820  31.5335240  35.5928500  68.1314390  19.0123460
  35.7680690  67.4452130  18.3684380  34.8950070  68.6561440  18.6200130
  23.4356150  68.5209230  16.5658770  24.1674970  68.2368510  16.0182660
  23.6949820  68.2822510  17.4558150  22.5970940  64.6373960  16.5705100
  21.9679820  65.1059060  17.1190930  22.7118770  63.7923180  17.0051290
  33.9261000  67.8158680  31.8390250  34.7186320  67.3207910  31.6316210
  34.2194150  68.4948820  32.4465860  30.0520660  58.6879620   2.7206300
  29.9714710  57.7734230   2.4498010  29.6385080  59.1846690   2.0146010
  28.1838700  60.4658640   4.6015570  27.4080800  59.9859080   4.8914140
  28.8351630  59.7864290   4.4271730  22.2004530  60.7778450   5.4791330
  21.3689410  60.5227160   5.8787840  22.8085510  60.8489220   6.2149250
  32.2046130  64.8718830   3.3814700  31.7427660  64.1006070   3.7101870
  33.0171680  64.8984900   3.8867150  22.1805790  64.8118540   5.6749350
  22.4833830  63.9216280   5.4959570  22.9249380  65.3688760   5.4471600
  18.5729490  58.3385990   5.1473420  19.1445600  57.5708190   5.1477060
  18.5731030  58.6374750   4.2380030  28.4309440  67.1576840   3.0018690
  27.8120880  67.6134340   2.4313130  29.2861220  67.3128300   2.6008390
  27.6247690  63.1415830   4.6085730  27.5555970  62.2005770   4.4474860
  28.3867550  63.2317240   5.1808300  19.8154360  53.7470350   6.9342350
  19.6357200  52.8496100   7.2145110  19.4134440  54.2942220   7.6089300
  28.6552860  55.9486210   4.8354660  29.0317680  55.0758090   4.7228330
  28.5572370  56.2844910   3.9445100  32.4376980  53.4436650   1.7683000
  33.2586600  52.9533220   1.8108480  32.4711060  54.0334310   2.5214840
  20.4341030  56.2430850   5.5424690  21.1151140  56.5069220   6.1612090
  20.1189080  55.4031720   5.8762700  24.6265600  57.2898210   4.6297280
  25.1343820  57.7879180   5.2702300  25.1578840  56.5133410   4.4536640
  36.7276530  55.4603400   8.3326630  36.0228700  55.8485110   7.8141740
  36.9934450  56.1553690   8.9347560  22.9101700  51.9296770   8.8960700
  22.9120140  52.4469160   8.0906600  22.0806010  51.4526950   8.8730630
  24.1604550  61.5691950   7.0734200  23.8273930  62.1960870   7.7155270
  24.3371230  62.0953830   6.2935870  32.6738460  55.3837030   4.5410540
  31.9694030  55.6721920   5.1213650  33.0350620  56.1937140   4.1810100
  22.5917030  53.6406730   6.9031150  22.9333840  54.4848780   6.6085020
  21.6532840  53.7890470   7.0196490  23.3723650  63.5372750   8.8883380
  23.9897650  64.2123830   8.6067830  22.5116770  63.9460730   8.7970880
  34.2901240  65.0012160   6.8038020  33.6064760  65.6711270   6.7954690
  34.8295530  65.1992810   6.0382880  35.7425380  54.8291820   4.9319750
  34.7950290  54.8630800   5.0635180  36.0675370  55.6430770   5.3169110
  26.2744920  51.1289000   3.2275740  26.5819900  50.5735890   2.5111240
  25.3445620  51.2633460   3.0448730  31.8259980  66.8456290   5.5183200
  31.8387140  66.4418580   4.6505460  31.2735200  67.6203580   5.4144630
  31.2245420  61.7486130   6.8465810  31.6414210  61.5346240   6.0119270
  31.9485240  62.0058920   7.4174430  35.1707520  60.1473350   6.9382050
  34.3426150  60.2166440   6.4632180  35.7658000  60.7327660   6.4697880
  32.1349530  56.9342670   7.8836920  31.7220710  57.7596380   8.1376910
  31.4025480  56.3487710   7.6913280  24.2682320  59.7202570   2.7455590
  23.8639320  59.0079820   2.2501490  24.3545440  59.3755810   3.6343630
  24.7364020  63.4070130   4.9094800  24.4392310  62.8015600   4.2302580
  25.6863840  63.4447440   4.7984160  22.9810940  56.4945780   6.5254630
  23.5325530  56.6041120   5.7507880  23.4954450  56.8683380   7.2409860
  32.8249630  66.9802000   8.5717900  32.3480190  67.7874190   8.3790510
  32.1411420  66.3280330   8.7244110  23.8282450  63.1451820  11.5602600
  22.9310980  63.3691790  11.8076000  23.8535320  63.2686760  10.6114000
  22.6553670  60.0165140  10.1359970  22.5161440  60.8887940  10.5047370
  21.7735030  59.6737950   9.9907910  24.4534020  65.9586840  12.3445120
  24.4249450  66.3629790  11.4773550  24.2898990  65.0297200  12.1816720
  36.4048840  66.7413940  13.6409290  36.8808560  67.2196830  14.3198370
  37.0256000  66.6731430  12.9154790  18.6072320  61.7862690   6.0530880
  18.6852740  61.9211460   5.1086600  19.2214000  61.0778580   6.2459000
  35.8082090  63.9326790  10.8009300  35.9345150  63.6938670   9.8826480
  35.8503470  63.1011330  11.2731380  29.6698830  67.6354790   9.3704110
  30.1843500  67.5462800  10.1726540  28.8267910  67.9814490   9.6632020
  35.6606100  55.9859250  11.7659040  35.0450370  56.4938920  11.2374500
  35.3402520  55.0857580  11.7084980  18.6631840  62.8276860   8.5925340
  18.8262880  62.3582220   7.7744710  19.1284290  62.3200420   9.2574180
  23.4350610  51.9582620   3.6285910  22.9918760  52.7392160   3.2970430
  23.9935600  52.2812510   4.3356850  27.7220420  54.8251140   9.2321230
  27.2599790  55.0334160  10.0441170  27.3198530  54.0110490   8.9291900
  32.7224930  56.0460090  10.3617890  31.8718520  55.7465840  10.6826960
  32.5626720  56.2902100   9.4501710  29.8174640  57.5461840  12.4616680
  30.1428050  56.7125590  12.1218910  30.6054970  58.0690360  12.6095010
  25.4726510  52.5029950   5.4875510  25.7698840  53.4092780   5.4067530
  26.0212070  52.0148730   4.8735080  25.6664040  57.9801770  12.0227430
  25.5707640  57.0396500  11.8727830  26.5096020  58.2016840  11.6275500
  20.7974580  54.3915440  10.1761210  20.4037970  55.2390650  10.3833990
  20.1092980  53.7541810  10.3669850  27.3719630  54.4750410  13.2457950
  26.6817950  54.2822610  13.8804040  28.1151930  54.7585050  13.7782250
  18.0991630  52.3143900   4.2091290  17.8104680  52.8846760   4.9216270
  18.8437390  51.8348350   4.5722520  29.6482600  58.3148850   6.0811870
  28.9163720  58.8235660   6.4301970  29.2506940  57.4978830   5.7800650
  26.0859990  54.9903050   4.4864360  26.0896050  54.5493000   3.6368900
  26.9811110  55.3120380   4.5936180  21.9362370  54.8729540   3.4458570
  21.5962420  55.3504770   4.2025620  21.1739690  54.4194660   3.0859670
  30.1108510  53.7682530   5.4934810  30.1281250  54.2191180   6.3376660
  29.8624090  52.8688170   5.7068250  33.5379260  51.1814710  11.3321190
  33.8625030  50.4504370  11.8579170  33.5735770  50.8628350  10.4302180
  20.2370820  62.2028290  10.7521150  19.8525610  61.5621960  11.3504110
  20.5483010  62.9064410  11.3215880  26.3867960  59.0504830   6.2329770
  26.7538090  58.5763400   6.9791110  26.1973020  59.9246400   6.5738110
  19.2508450  53.7948520   2.3623240  18.9655370  53.4304190   3.2001860
  19.1887310  53.0628980   1.7486380  24.1767330  58.0913470   8.5513980
  23.8724400  58.9705450   8.7764340  25.1313790  58.1513260   8.5871420
  33.4637100  61.2939820   4.9407220  34.1836220  61.7895110   4.5503330
  33.2618920  60.6157710   4.2961090  28.8455900  61.3648880  10.8276220
  28.7793210  60.4444550  10.5733810  28.2161040  61.4624320  11.5420860
  22.7486520  61.9654840   2.7859640  23.2665190  61.1623100   2.7316530
  22.2970540  61.9033980   3.6276470  20.2331060  58.9316210   9.6985340
  19.8746000  59.5970060  10.2858680  19.9385620  58.0999760  10.0697960
  23.4344180  59.3900450  12.5824890  23.1344320  59.5357630  11.6852710
  24.2055420  58.8305740  12.4898280  28.7772630  64.1869450  10.5780020
  28.7917170  63.2550410  10.3598930  28.0697730  64.2729210  11.2169790
  34.9883840  60.8276790   9.9248600  34.2632030  61.4205570   9.7277990
  35.5159300  60.8200330   9.1261970  30.5183430  62.5536960   3.4232450
  30.8707250  61.9565090   2.7633820  29.6345760  62.2281190   3.5940700
  28.2106530  65.8287020   7.6720520  28.8548750  66.0346400   8.3493940
  28.5735970  65.0675420   7.2191370  29.4838610  63.8319370   6.3897970
  30.1260840  63.1312530   6.5030140  30.0087960  64.6117810   6.2094860
  31.2576230  64.6314270   9.5934030  31.5932470  65.2180960  10.2711950
  30.3376570  64.5006980   9.8231820  18.8079630  52.4209450  10.3757440
  18.0938150  52.6206370  10.9810050  19.2274670  51.6449020  10.7472240
  19.0952220  66.4089710  11.3623970  19.2043340  65.4684450  11.2219360
  18.4432780  66.6744460  10.7137700  27.0864810  64.6805600  12.7622090
  26.7661680  63.9614840  13.3067780  26.4123170  65.3560670  12.8358150
  30.3018410  54.9131760   8.1258890  30.6699230  54.0926970   8.4538460
  29.4416610  54.9733650   8.5414540  27.2620400  57.5671350   8.3496860
  27.7605650  58.0417170   9.0148710  27.4043350  56.6434870   8.5566890
  34.4687260  53.7839310   9.1925250  33.9660860  54.5244710   9.5319060
  35.2843920  54.1723310   8.8762040  32.7609270  59.0272490   2.6386610
  31.8199410  59.0422720   2.8134300  33.0753340  58.2408450   3.0846910
  34.7634850  66.1981340   4.3140870  34.8882270  67.0212510   4.7864680
  35.6300410  65.9872070   3.9665020  22.2352380  68.2912550   3.9858000
  22.9714860  67.7428010   4.2566570  22.6193300  69.1568560   3.8463990
  21.2410660  67.4758620  13.1743580  22.0423390  67.7970670  13.5878980
  20.7262480  67.1154200  13.8963490  30.0775290  63.5838490  13.1218990
  29.4713450  63.6070090  12.3814740  29.7729400  62.8521530  13.6586240
  31.5075660  67.3118780  11.7328400  32.4597410  67.2276800  11.6828640
  31.3603880  67.9760490  12.4062190  18.9608470  59.9632080  12.1179630
  19.4647490  59.3839360  12.6895860  18.2215890  60.2472310  12.6556000
  26.0146410  61.3703070  11.6515150  25.2492080  61.9388070  11.5669820
  26.1962370  61.0779280  10.7583380  33.1569760  63.1008400  12.2090170
  33.8979230  63.4384160  11.7057630  32.3942440  63.2700460  11.6559940
  20.9931550  58.1061670  13.0129700  21.0336890  57.8075540  13.9214930
  21.8477050  58.5069280  12.8537220  22.9337360  56.6853770  10.9804190
  22.4033820  56.1944720  10.3527530  23.6025430  57.1137970  10.4462120
  31.8315420  61.1523230  10.7445380  32.2456440  61.3068310  11.5935800
  30.8966420  61.2778450  10.9071160  32.3037590  58.4919390  12.7484530
  32.8858360  57.7371710  12.6605010  32.4799360  59.0226830  11.9716010
  23.4209660  53.6516140  11.0601480  23.3266530  53.0336890  10.3352350
  22.8407050  54.3782430  10.8331390  26.1871100  52.2089380   8.0928870
  25.7388400  52.2313640   7.2474420  25.5536300  51.8108400   8.6899170
  26.5930650  61.1043710   8.7141310  27.0118760  61.9476440   8.5417550
  25.6739280  61.2415750   8.4848090  28.9294550  58.8359890  10.0979150
  29.0490760  58.2401030  10.8373990  29.7888550  58.8729580   9.6780450
  31.2682450  59.3897080   8.6741660  30.7417670  59.9139700   8.0706800
  31.6113790  60.0224470   9.3051390  24.4438070  67.4096720   9.8299040
  23.9059160  68.1342780   9.5107740  24.6972030  66.9327060   9.0396380
  25.6963320  55.3781240  11.3554970  26.2863010  55.0697090  12.0432790
  24.8783560  54.9060990  11.5114870  30.5156750  54.9947050  11.5887990
  29.8272270  54.3328590  11.5237980  31.2362770  54.5485320  12.0336450
  27.3000280  68.6447930  10.0885690  27.2258980  69.5483070  10.3958060
  26.3979120  68.3259830  10.0607760  18.7027570  65.9722520   3.3919310
  19.0330580  65.1043580   3.1597950  19.1318570  66.1781040   4.2224270
  19.1917780  66.8393110   6.1300940  18.7548770  67.0193910   6.9625090
  19.7595460  67.5967730   5.9882660  34.8279960  66.3410110  10.4178250
  34.2281950  66.4002670   9.6742170  34.9573860  65.4015090  10.5475100
  19.0242210  59.3513340   2.4889820  18.3691050  59.0824980   1.8449520
  19.8620160  59.2417820   2.0391800  36.5297840  61.6825510   3.1024090
  36.9006670  60.8992830   2.6960060  37.1699770  62.3714610   2.9241390
  33.5131600  63.0662090   8.5154410  32.6991440  63.4959250   8.7780200
  33.9205800  63.6780500   7.9023460  20.0618140  59.7365910   7.0293160
  20.4291180  59.6493310   7.9089180  19.4928960  58.9732460   6.9300020
  34.8622000  58.2050290  10.0423630  34.6308090  57.9763040   9.1421580
  35.1226550  59.1249840   9.9968520  19.6134140  56.6475000  10.9351580
  18.7190190  56.6141760  11.2745290  20.1531690  56.8461790  11.7002830
  33.3010070  53.4306720  12.8203330  34.1780250  53.4390120  13.2037330
  33.3130910  52.6937560  12.2095680  34.7473340  57.2836260   3.7091350
  35.2710820  56.7898910   3.0781520  35.3332760  57.4186620   4.4538920
  34.9263060  57.3676130   7.2310900  33.9765770  57.3339670   7.3455890
  35.1076070  58.2776240   6.9960670  20.1173850  50.9223330   5.2834800
  20.7650040  50.3720710   4.8429960  20.5375690  51.1766480   6.1050610
  35.6660470  55.1770560   2.1821440  35.5559750  55.0226600   3.1203710
  36.4268060  54.6491500   1.9396850  34.0126190  51.1164690   8.6404440
  34.6498410  51.7298830   9.0063630  34.1601080  51.1525350   7.6953670
  19.8705850  51.0779000   8.0260120  19.5220670  51.5342820   8.7918300
  19.5393550  50.1836130   8.1082550  21.4770220  64.2498600  12.1913310
  21.4339850  63.8791510  13.0727770  21.6081230  65.1876170  12.3315130
  25.1776250  65.8058190   7.7923030  24.9367610  66.0732750   6.9053550
  26.1178890  65.9763920   7.8473890  27.3830670  52.2690880  11.5479540
  27.3219560  52.8612710  12.2974950  28.3231050  52.1616840  11.4029800
  30.0205230  51.9260940  11.1871830  30.6345640  52.2440230  10.5252910
  30.5654790  51.4409530  11.8067690  36.4380410  67.8252570   8.5933670
  35.9438690  68.2221440   7.8760800  35.8293700  67.2001780   8.9870950
  20.5426490  50.6055200  11.3010890  21.0909480  50.4243250  10.5377000
  20.6081800  49.8149310  11.8367200  21.3158250  67.1960850   9.3111090
  20.7218570  67.0645550  10.0501130  21.3082090  66.3598990   8.8453190
  30.7613270  50.4893080   7.5141120  29.8873110  50.8228190   7.3114050
  30.6524020  50.0166260   8.3392990  31.6685250  52.6963950   8.8982840
  31.3398610  51.8815710   8.5184570  32.6167550  52.6533760   8.7748530
  34.1219860  68.4675990   5.8720410  33.6622830  69.2191800   5.4978430
  33.4932320  67.7482460   5.8135210  20.9470480  64.5619230   8.2619130
  20.2204540  63.9424520   8.1945080  21.0079630  64.9559840   7.3917210
  24.5515580  66.7764230   5.0468540  25.0680600  66.1651590   4.5216800
  25.2012960  67.2793010   5.5379550  27.2911080  67.6672720   5.8737520
  27.5788890  67.4127020   4.9970530  27.8034300  67.1150080   6.4643090
  28.5088090  51.4062920   6.4534030  27.7259880  51.8808420   6.7330790
  28.2151020  50.5017750   6.3447210  33.0609160  52.1086020   4.4983120
  33.5017250  52.0531120   3.6504720  32.7916750  53.0244030   4.5693300
  34.9247730  51.7401260   2.5091940  34.8636130  50.7962480   2.3622960
  35.7039760  51.8481350   3.0545400  30.8967290  50.4892120   3.2033130
  31.4996660  51.0612330   3.6781650  30.1560280  51.0531560   2.9807030
  27.3583440  68.5888820  13.2405720  28.2850750  68.3533090  13.2841680
  27.3433870  69.4160820  12.7591750  24.5447050  51.2533570  13.0047600
  24.2631320  51.7567170  12.2408420  24.9266750  50.4555320  12.6389730
  31.1462510  50.6687150  13.5828070  31.0327960  50.9881760  14.4779590
  31.9632250  51.0699660  13.2865350  33.9261000  67.8158680  13.0646760
  34.7186320  67.3207910  12.8572720  34.2194150  68.4948820  13.6722370
  30.0520660  39.9136130  59.0436770  29.9714710  38.9990740  58.7728480
  29.6385080  40.4103200  58.3376480  28.1838700  41.6915150  60.9246040
  27.4080800  41.2115590  61.2144610  28.8351630  41.0120800  60.7502200
  22.2004530  42.0034960  61.8021800  21.3689410  41.7483670  62.2018310
  22.8085510  42.0745730  62.5379720  32.2046130  46.0975340  59.7045170
  31.7427660  45.3262580  60.0332340  33.0171680  46.1241410  60.2097620
  22.1805790  46.0375050  61.9979820  22.4833830  45.1472790  61.8190040
  22.9249380  46.5945270  61.7702070  20.6096480  36.9636850  55.5864190
  19.7213180  37.3052820  55.4844070  20.8937670  36.7637170  54.6945020
  18.5729490  39.5642500  61.4703890  19.1445600  38.7964700  61.4707530
  18.5731030  39.8631260  60.5610500  28.4309440  48.3833350  59.3249160
  27.8120880  48.8390850  58.7543600  29.2861220  48.5384810  58.9238860
  27.6247690  44.3672340  60.9316200  27.5555970  43.4262280  60.7705330
  28.3867550  44.4573750  61.5038770  28.6552860  37.1742720  61.1585130
  29.0317680  36.3014600  61.0458800  28.5572370  37.5101420  60.2675570
  22.7857870  35.5468350  56.6202570  22.8924620  36.4472080  56.9271330
  21.8750230  35.4986320  56.3297220  32.4376980  34.6693160  58.0913470
  33.2586600  34.1789730  58.1338950  32.4711060  35.2590820  58.8445310
  20.4341030  37.4687360  61.8655160  21.1151140  37.7325730  62.4842560
  20.1189080  36.6288230  62.1993170  24.6265600  38.5154720  60.9527750
  25.1343820  39.0135690  61.5932770  25.1578840  37.7389920  60.7767110
  29.2972790  43.2672590  56.7181070  28.6790060  43.7322040  56.1543790
  29.8096040  43.9600070  57.1350580  32.6738460  36.6093540  60.8641010
  31.9694030  36.8978430  61.4444120  33.0350620  37.4193650  60.5040570
  18.6655990  43.9529120  54.0920700  18.2883970  44.4416220  53.3605600
  18.9229060  44.6254400  54.7227230  34.2901240  46.2268670  63.1268490
  33.6064760  46.8967780  63.1185160  34.8295530  46.4249320  62.3613350
  35.7425380  36.0548330  61.2550220  34.7950290  36.0887310  61.3865650
  36.0675370  36.8687280  61.6399580  26.2744920  32.3545510  59.5506210
  26.5819900  31.7992400  58.8341710  25.3445620  32.4889970  59.3679200
  31.8259980  48.0712800  61.8413670  31.8387140  47.6675090  60.9735930
  31.2735200  48.8460090  61.7375100  33.1205400  44.7929020  56.9303840
  33.0101730  43.8503350  57.0553260  33.1173650  45.1544660  57.8166600
  28.6625680  40.4194340  56.2866330  27.7354960  40.3531720  56.5154800
  28.8150500  41.3574470  56.1721570  28.6494760  36.6911340  53.2833490
  27.7098430  36.8525300  53.3685950  28.9678020  37.4097020  52.7369480
  35.1707520  41.3729860  63.2612520  34.3426150  41.4422950  62.7862650
  35.7658000  41.9584170  62.7928350  32.6922970  41.9814640  56.7901580
  32.0735390  41.6434190  56.1427880  32.6747420  41.3374400  57.4980770
  24.2682320  40.9459080  59.0686060  23.8639320  40.2336330  58.5731960
  24.3545440  40.6012320  59.9574100  24.7364020  44.6326640  61.2325270
  24.4392310  44.0272110  60.5533050  25.6863840  44.6703950  61.1214630
  30.8687670  41.2201450  53.7974330  31.3080950  40.3823880  53.6512150
  31.5816090  41.8530850  53.8838470  28.9783050  46.1597520  57.7655570
  29.4178960  46.9021850  57.3510960  28.9169940  46.4024090  58.6894530
  34.4504810  32.4744260  52.1115370  34.1377470  32.5671090  53.0114440
  35.2117280  33.0525290  52.0612800  20.9686950  39.8404060  56.5692710
  20.8484550  40.5666150  55.9573980  20.6587840  39.0706970  56.0920620
  18.6072320  43.0119200  62.3761350  18.6852740  43.1467970  61.4317070
  19.2214000  42.3035090  62.5689470  19.8519950  44.7119390  58.7867530
  19.4448030  44.8533980  57.9321130  20.7432960  44.4279550  58.5838740
  31.6453230  49.1466640  55.1218580  31.4854370  48.8569580  56.0200410
  31.4799940  48.3706770  54.5863810  24.1241610  48.9265170  56.8990200
  23.9484090  48.0100710  56.6858000  23.2697350  49.2852460  57.1388000
  31.3479360  46.6554200  53.6816580  30.6544520  46.6531490  53.0218860
  32.0902220  46.2313520  53.2510750  30.9129290  48.2816910  57.7565070
  31.3686240  47.5006290  58.0703690  31.2521810  48.9923730  58.3006250
  23.4350610  33.1839130  59.9516380  22.9918760  33.9648670  59.6200900
  23.9935600  33.5069020  60.6587320  26.5509430  32.8049830  54.8322210
  25.9263610  32.8009700  55.5575520  26.4639550  31.9380790  54.4358180
  25.4726510  33.7286460  61.8105980  25.7698840  34.6349290  61.7298000
  26.0212070  33.2405240  61.1965550  23.2264830  38.3072700  57.6797630
  23.0005750  38.0909870  58.5844250  22.4457360  38.7401160  57.3343600
  30.4562590  38.3136070  56.2788280  29.8571480  39.0371870  56.0951900
  31.0042200  38.2512850  55.4964730  29.0627460  36.9499610  58.3091560
  29.4557030  37.2671810  57.4960250  29.4244310  36.0711490  58.4236080
  18.0991630  33.5400410  60.5321760  17.8104680  34.1103270  61.2446740
  18.8437390  33.0604860  60.8952990  18.2861860  37.4820530  51.7424480
  18.2036530  38.4251290  51.8839470  17.9344920  37.3395440  50.8636830
  29.6482600  39.5405360  62.4042340  28.9163720  40.0492170  62.7532440
  29.2506940  38.7235340  62.1031120  26.0859990  36.2159560  60.8094830
  26.0896050  35.7749510  59.9599370  26.9811110  36.5376890  60.9166650
  21.9362370  36.0986050  59.7689040  21.5962420  36.5761280  60.5256090
  21.1739690  35.6451170  59.4090140  26.1480140  37.2171640  53.8001590
  26.2692960  37.1758120  54.7487410  25.7628650  38.0795790  53.6448320
  30.1108510  34.9939040  61.8165280  30.1281250  35.4447690  62.6607130
  29.8624090  34.0944680  62.0298720  25.1601640  39.5272780  53.1984890
  24.5918540  39.0791030  52.5720800  25.8690640  39.8865560  52.6650040
  19.2508450  35.0205030  58.6853710  18.9655370  34.6560700  59.5232330
  19.1887310  34.2885490  58.0716850  22.7049120  43.5230970  55.4711300
  21.9311380  42.9828590  55.3110020  23.4343750  43.0037580  55.1329060
  33.4637100  42.5196330  61.2637690  34.1836220  43.0151620  60.8733800
  33.2618920  41.8414220  60.6191560  28.9247040  33.9134290  55.4067080
  28.1111650  33.4147460  55.3312390  28.7308990  34.7532540  54.9903430
  31.6395430  38.2853940  53.7029240  32.5275050  38.5971170  53.5280580
  31.6100520  37.4126190  53.3109820  22.7486520  43.1911350  59.1090110
  23.2665190  42.3879610  59.0547000  22.2970540  43.1290490  59.9506940
  27.6356020  44.4577630  54.3817410  27.9771720  45.2019860  53.8860730
  26.8068730  44.7708750  54.7442240  33.9109700  39.5965780  53.1709100
  33.8273420  40.0280000  52.3205540  34.6303890  40.0564130  53.6035920
  34.9396950  46.4508040  55.8991230  34.2973110  45.7963660  56.1734950
  34.5527610  46.8563130  55.1231900  30.5183430  43.7793470  59.7462920
  30.8707250  43.1821600  59.0864290  29.6345760  43.4537700  59.9171170
  26.6046710  44.5391160  57.1533330  27.2917840  45.0860370  57.5340920
  25.8179130  45.0831890  57.1882940  18.7439110  40.1563980  52.6450410
  19.6133960  40.4388780  52.9286330  18.2529430  40.9699850  52.5299220
  25.9073920  41.5437190  56.7658690  26.3636700  42.3542440  56.9918880
  25.5562130  41.2260330  57.5977180  21.8085700  31.8874840  57.2381210
  21.6800330  31.8792740  58.1866130  20.9847720  32.2257930  56.8872220
  29.4838610  45.0575880  62.7128440  30.1260840  44.3569040  62.8260610
  30.0087960  45.8374320  62.5325330  33.3294330  45.3424500  52.4367580
  33.1031910  44.6254940  53.0292220  32.9390530  45.0936940  51.5989330
  19.1110360  49.3691360  53.2112040  19.4708000  49.9680700  52.5569310
  18.9702700  49.9151250  53.9847070  32.9110580  43.2596440  54.0981740
  32.6232280  43.7209130  54.8859620  33.7062750  42.7994210  54.3665960
  25.1278980  46.7522560  54.0285710  25.1189080  47.4852250  53.4130220
  24.2077340  46.5054140  54.1212670  20.7285620  41.9737450  54.7732470
  20.1213570  42.7136350  54.7827770  21.2034970  42.0636810  53.9470670
  33.6680440  35.0945210  55.2576920  33.0393600  35.1990880  54.5435150
  33.1732360  35.3141990  56.0470800  28.1138580  46.8150800  52.6910900
  28.2150560  46.6114790  51.7612880  27.2140320  46.5609080  52.8958680
  25.6364470  37.3731160  56.6734800  24.9280620  37.8417500  57.1148410
  25.9208950  36.7153170  57.3079990  29.6679900  34.0981820  58.1130590
  29.5447680  34.1167950  57.1640100  30.6164460  34.1460760  58.2328990
  26.7556690  49.3337120  57.3858570  27.0098190  49.2958510  56.4637940
  25.8069170  49.2070450  57.3786820  23.8399490  35.6816240  54.0485510
  24.6890020  36.1186390  53.9825700  23.4730760  35.9936500  54.8757570
  32.7609270  40.2529000  58.9617080  31.8199410  40.2679230  59.1364770
  33.0753340  39.4664960  59.4077380  22.7390910  41.9348600  52.5221040
  23.5054180  41.8229960  53.0846470  22.8165600  41.2386570  51.8697810
  21.4337670  39.3673670  53.2053930  21.5141260  38.4201180  53.3171330
  22.3257420  39.6980550  53.3114590  34.7634850  47.4237850  60.6371340
  34.8882270  48.2469020  61.1095150  35.6300410  47.2128580  60.2895490
  22.2352380  49.5169060  60.3088470  22.9714860  48.9684520  60.5797040
  22.6193300  50.3825070  60.1694460  19.1197860  45.5842630  56.1829980
  18.1937640  45.8263770  56.1735390  19.5854290  46.4116890  56.0614730
  25.3454690  48.6899370  52.1314040  26.1383300  48.9788200  51.6795830
  24.8259040  48.2591540  51.4526520  34.3984860  47.9169500  53.5550780
  34.1126370  47.5034640  52.7404960  34.2004410  48.8457210  53.4351300
  25.8632090  43.9102780  51.9956390  25.7582730  43.2955130  52.7217770
  25.6956310  43.3868670  51.2119400  29.1034820  42.9722810  52.5998380
  28.5544920  43.4192110  53.2441120  29.7254080  42.4672060  53.1236050
  24.7709940  41.9313730  54.4963680  25.1926360  41.7653600  55.3395070
  24.8960780  41.1213960  54.0018820  27.2837580  40.9551340  51.7440780
  27.8043240  40.2400360  51.3781930  27.9305980  41.5937210  52.0441290
  23.6668840  38.0046960  51.4421840  23.4657900  37.1414320  51.8035180
  23.4960890  37.9180320  50.5043440  31.1457150  32.8155190  53.9708720
  31.4259440  31.9723090  54.3268140  30.3722880  33.0478300  54.4847470
  22.4651640  35.1047580  51.4299720  22.7677540  35.1115010  50.5218870
  23.2046230  34.7545440  51.9267380  25.6836570  34.0482200  52.4155920
  25.3358570  33.3706190  51.8358370  25.8849340  33.5871710  53.2299310
  27.8485610  49.0362950  54.0342520  28.7436400  49.3747920  54.0561280
  27.8803240  48.3142360  53.4066800  21.4881770  44.4090000  52.2629520
  21.9256640  44.9519670  52.9187100  21.9729500  43.5836950  52.2725860
  18.7027570  47.1979030  59.7149780  19.0330580  46.3300090  59.4828420
  19.1318570  47.4037550  60.5454740  23.2989490  45.5288040  57.3751750
  22.9985030  45.4053010  58.2755660  23.1926980  44.6696630  56.9667480
  36.0681410  45.3084440  52.0778430  35.2374370  45.3761090  52.5485660
  36.2453240  46.1988560  51.7745290  35.5237870  42.0531920  54.5812630
  36.2856780  42.6228570  54.6872320  35.5392240  41.4859120  55.3520940
  19.0242210  40.5769850  58.8120290  18.3691050  40.3081490  58.1679990
  19.8620160  40.4674330  58.3622270  36.5297840  42.9082020  59.4254560
  36.9006670  42.1249340  59.0190530  37.1699770  43.5971120  59.2471860
  35.5757040  42.3466290  51.7385150  35.8505880  43.2545170  51.6104370
  35.3867780  42.2828820  52.6747140  31.9732650  35.3711140  53.0338780
  32.3917530  35.1842120  52.1935440  31.6668710  34.5190190  53.3441710
  35.4722380  40.2835280  56.7314580  35.0965980  39.5163210  56.2995870
  34.7425500  40.6657980  57.2189510  18.2380290  37.7868780  54.7545620
  17.3344370  38.0498980  54.5797280  18.7220910  38.0579950  53.9745580
  34.7473340  38.5092770  60.0321820  35.2710820  38.0155420  59.4011990
  35.3332760  38.6443130  60.7769390  20.7807500  36.8434320  52.6640000
  21.4899200  36.4217540  52.1787280  20.0647440  36.9109550  52.0323350
  20.4281660  32.8973650  51.7042650  21.1509790  33.4382590  52.0223870
  20.7006180  32.6237070  50.8284190  34.2373310  37.7666120  55.9714230
  34.7332430  37.5336990  56.7563110  34.0389380  36.9277960  55.5551870
  20.1173850  32.1479840  61.6065270  20.7650040  31.5977220  61.1660430
  20.5375690  32.4022990  62.4281080  35.6660470  36.4027070  58.5051910
  35.5559750  36.2483110  59.4434180  36.4268060  35.8748010  58.2627320
  36.5550740  34.2334990  51.7458050  37.4800050  34.1016170  51.5376340
  36.5326530  34.3127810  52.6994500  36.6289230  35.0045650  54.3714760
  35.8340730  34.9390770  54.9007670  36.8332510  35.9396290  54.3600110
  33.5707650  49.0437200  58.3653150  34.1666720  48.7221770  57.6887570
  33.8285800  48.5709020  59.1566420  34.1219860  49.6932500  62.1950880
  33.6622830  50.4448310  61.8208900  33.4932320  48.9738970  62.1365680
  24.5515580  48.0020740  61.3699010  25.0680600  47.3908100  60.8447270
  25.2012960  48.5049520  61.8610020  27.2911080  48.8929230  62.1967990
  27.5788890  48.6383530  61.3201000  27.8034300  48.3406590  62.7873560
  28.5088090  32.6319430  62.7764500  27.7259880  33.1064930  63.0561260
  28.2151020  31.7274260  62.6677680  33.0609160  33.3342530  60.8213590
  33.5017250  33.2787630  59.9735190  32.7916750  34.2500540  60.8923770
  34.9247730  32.9657770  58.8322410  34.8636130  32.0218990  58.6853430
  35.7039760  33.0737860  59.3775870  19.2300480  49.1050130  57.7946360
  19.0622520  48.4720810  58.4928250  18.3634990  49.3109530  57.4440550
  19.8528500  32.9366910  55.2978220  20.6107860  33.0495790  54.7242250
  19.3905670  33.7736110  55.2521650  26.3942310  35.0506180  58.2880530
  25.5816820  34.6763070  57.9476410  26.8983950  34.2951260  58.5901720
  30.8967290  31.7148630  59.5263600  31.4996660  32.2868840  60.0012120
  30.1560280  32.2788070  59.3037500  34.0401890  32.1170190  54.8003880
  34.2352520  33.0153640  55.0671310  33.2531760  31.8857270  55.2936830
  20.8363180  47.7983360  55.2396500  20.3110800  48.1791390  54.5358460
  20.7607760  48.4234130  55.9606210  22.2253650  33.4630960  53.8380190
  22.7546410  32.6760760  53.7088140  22.8581970  34.1422150  54.0715720
  24.4191490  33.2006100  56.8925580  23.7894230  32.4993410  57.0595710
  23.8796630  33.9610230  56.6758740  35.5928500  49.3570900  56.5610440
  35.7680690  48.6708640  55.9171360  34.8950070  49.8817950  56.1687110
  23.4356150  49.7465740  54.1145750  24.1674970  49.4625020  53.5669640
  23.6949820  49.5079020  55.0045130  22.5970940  45.8630470  54.1192080
  21.9679820  46.3315570  54.6677910  22.7118770  45.0179690  54.5538270
  22.2004530  42.0034960  43.0278310  21.3689410  41.7483670  43.4274820
  22.8085510  42.0745730  43.7636230  22.1805790  46.0375050  43.2236330
  22.4833830  45.1472790  43.0446550  22.9249380  46.5945270  42.9958580
  18.5729490  39.5642500  42.6960400  19.1445600  38.7964700  42.6964040
  18.5731030  39.8631260  41.7867010  19.8154360  34.9726860  44.4829330
  19.6357200  34.0752610  44.7632090  19.4134440  35.5198730  45.1576280
  20.4341030  37.4687360  43.0911670  21.1151140  37.7325730  43.7099070
  20.1189080  36.6288230  43.4249680  22.9101700  33.1553280  46.4447680
  22.9120140  33.6725670  45.6393580  22.0806010  32.6783460  46.4217610
  24.1604550  42.7948460  44.6221180  23.8273930  43.4217380  45.2642250
  24.3371230  43.3210340  43.8422850  22.5917030  34.8663240  44.4518130
  22.9333840  35.7105290  44.1572000  21.6532840  35.0146980  44.5683470
  23.3723650  44.7629260  46.4370360  23.9897650  45.4380340  46.1554810
  22.5116770  45.1717240  46.3457860  18.6655990  43.9529120  35.3177210
  18.2883970  44.4416220  34.5862110  18.9229060  44.6254400  35.9483740
  22.9810940  37.7202290  44.0741610  23.5325530  37.8297630  43.2994860
  23.4954450  38.0939890  44.7896840  23.8282450  44.3708330  49.1089580
  22.9310980  44.5948300  49.3562980  23.8535320  44.4943270  48.1600980
  22.6553670  41.2421650  47.6846950  22.5161440  42.1144450  48.0534350
  21.7735030  40.8994460  47.5394890  24.4534020  47.1843350  49.8932100
  24.4249450  47.5886300  49.0260530  24.2898990  46.2553710  49.7303700
  20.9686950  39.8404060  37.7949220  20.8484550  40.5666150  37.1830490
  20.6587840  39.0706970  37.3177130  36.4048840  47.9670450  51.1896270
  36.8808560  48.4453340  51.8685350  37.0256000  47.8987940  50.4641770
  18.6072320  43.0119200  43.6017860  18.6852740  43.1467970  42.6573580
  19.2214000  42.3035090  43.7945980  19.8519950  44.7119390  40.0124040
  19.4448030  44.8533980  39.1577640  20.7432960  44.4279550  39.8095250
  35.6606100  37.2115760  49.3146020  35.0450370  37.7195430  48.7861480
  35.3402520  36.3114090  49.2571960  18.6631840  44.0533370  46.1412320
  18.8262880  43.5838730  45.3231690  19.1284290  43.5456930  46.8061160
  27.7220420  36.0507650  46.7808210  27.2599790  36.2590670  47.5928150
  27.3198530  35.2367000  46.4778880  29.8174640  38.7718350  50.0103660
  30.1428050  37.9382100  49.6705890  30.6054970  39.2946870  50.1581990
  23.2264830  38.3072700  38.9054140  23.0005750  38.0909870  39.8100760
  22.4457360  38.7401160  38.5600110  25.6664040  39.2058280  49.5714410
  25.5707640  38.2653010  49.4214810  26.5096020  39.4273350  49.1762480
  20.7974580  35.6171950  47.7248190  20.4037970  36.4647160  47.9320970
  20.1092980  34.9798320  47.9156830  27.3719630  35.7006920  50.7944930
  26.6817950  35.5079120  51.4291020  28.1151930  35.9841560  51.3269230
  18.2861860  37.4820530  32.9680990  18.2036530  38.4251290  33.1095980
  17.9344920  37.3395440  32.0893340  21.9362370  36.0986050  40.9945550
  21.5962420  36.5761280  41.7512600  21.1739690  35.6451170  40.6346650
  33.5379260  32.4071220  48.8808170  33.8625030  31.6760880  49.4066150
  33.5735770  32.0884860  47.9789160  20.2370820  43.4284800  48.3008130
  19.8525610  42.7878470  48.8991090  20.5483010  44.1320920  48.8702860
  24.1767330  39.3169980  46.1000960  23.8724400  40.1961960  46.3251320
  25.1313790  39.3769770  46.1358400  22.7486520  43.1911350  40.3346620
  23.2665190  42.3879610  40.2803510  22.2970540  43.1290490  41.1763450
  20.2331060  40.1572720  47.2472320  19.8746000  40.8226570  47.8345660
  19.9385620  39.3256270  47.6184940  23.4344180  40.6156960  50.1311870
  23.1344320  40.7614140  49.2339690  24.2055420  40.0562250  50.0385260
  18.7439110  40.1563980  33.8706920  19.6133960  40.4388780  34.1542840
  18.2529430  40.9699850  33.7555730  19.1110360  49.3691360  34.4368550
  19.4708000  49.9680700  33.7825820  18.9702700  49.9151250  35.2103580
  18.8079630  33.6465960  47.9244420  18.0938150  33.8462880  48.5297030
  19.2274670  32.8705530  48.2959220  19.0952220  47.6346220  48.9110950
  19.2043340  46.6940960  48.7706340  18.4432780  47.9000970  48.2624680
  27.0864810  45.9062110  50.3109070  26.7661680  45.1871350  50.8554760
  26.4123170  46.5817180  50.3845130  20.7285620  41.9737450  35.9988980
  20.1213570  42.7136350  36.0084280  21.2034970  42.0636810  35.1727180
  19.1197860  45.5842630  37.4086490  18.1937640  45.8263770  37.3991900
  19.5854290  46.4116890  37.2871240  21.2410660  48.7015130  50.7230560
  22.0423390  49.0227180  51.1365960  20.7262480  48.3410710  51.4450470
  30.0775290  44.8095000  50.6705970  29.4713450  44.8326600  49.9301720
  29.7729400  44.0778040  51.2073220  18.9608470  41.1888590  49.6666610
  19.4647490  40.6095870  50.2382840  18.2215890  41.4728820  50.2042980
  26.0146410  42.5959580  49.2002130  25.2492080  43.1644580  49.1156800
  26.1962370  42.3035790  48.3070360  20.9931550  39.3318180  50.5616680
  21.0336890  39.0332050  51.4701910  21.8477050  39.7325790  50.4024200
  22.9337360  37.9110280  48.5291170  22.4033820  37.4201230  47.9014510
  23.6025430  38.3394480  47.9949100  23.4209660  34.8772650  48.6088460
  23.3266530  34.2593400  47.8839330  22.8407050  35.6038940  48.3818370
  24.4438070  48.6353230  47.3786020  23.9059160  49.3599290  47.0594720
  24.6972030  48.1583570  46.5883360  25.6963320  36.6037750  48.9041950
  26.2863010  36.2953600  49.5919770  24.8783560  36.1317500  49.0601850
  30.5156750  36.2203560  49.1374970  29.8272270  35.5585100  49.0724960
  31.2362770  35.7741830  49.5823430  18.7027570  47.1979030  40.9406290
  19.0330580  46.3300090  40.7084930  19.1318570  47.4037550  41.7711250
  19.1917780  48.0649620  43.6787920  18.7548770  48.2450420  44.5112070
  19.7595460  48.8224240  43.5369640  19.0242210  40.5769850  40.0376800
  18.3691050  40.3081490  39.3936500  19.8620160  40.4674330  39.5878780
  20.0618140  40.9622420  44.5780140  20.4291180  40.8749820  45.4576160
  19.4928960  40.1988970  44.4787000  19.6134140  37.8731510  48.4838560
  18.7190190  37.8398270  48.8232270  20.1531690  38.0718300  49.2489810
  33.3010070  34.6563230  50.3690310  34.1780250  34.6646630  50.7524310
  33.3130910  33.9194070  49.7582660  18.2380290  37.7868780  35.9802130
  17.3344370  38.0498980  35.8053790  18.7220910  38.0579950  35.2002090
  21.4770220  45.4755110  49.7400290  21.4339850  45.1048020  50.6214750
  21.6081230  46.4132680  49.8802110  25.1776250  47.0314700  45.3410010
  24.9367610  47.2989260  44.4540530  26.1178890  47.2020430  45.3960870
  27.3830670  33.4947390  49.0966520  27.3219560  34.0869220  49.8461930
  28.3231050  33.3873350  48.9516780  30.0205230  33.1517450  48.7358810
  30.6345640  33.4696740  48.0739890  30.5654790  32.6666040  49.3554670
  20.5426490  31.8311710  48.8497870  21.0909480  31.6499760  48.0863980
  20.6081800  31.0405820  49.3854180  21.3158250  48.4217360  46.8598070
  20.7218570  48.2902060  47.5988110  21.3082090  47.5855500  46.3940170
  20.9470480  45.7875740  45.8106110  20.2204540  45.1681030  45.7432060
  21.0079630  46.1816350  44.9404190  19.2300480  49.1050130  39.0202870
  19.0622520  48.4720810  39.7184760  18.3634990  49.3109530  38.6697060
  27.3583440  49.8145330  50.7892700  28.2850750  49.5789600  50.8328660
  27.3433870  50.6417330  50.3078730  24.5447050  32.4790080  50.5534580
  24.2631320  32.9823680  49.7895400  24.9266750  31.6811830  50.1876710
  31.1462510  31.8943660  51.1315050  31.0327960  32.2138270  52.0266570
  31.9632250  32.2956170  50.8352330  22.2004530  42.0034960  24.2534820
  21.3689410  41.7483670  24.6531330  22.8085510  42.0745730  24.9892740
  22.1805790  46.0375050  24.4492840  22.4833830  45.1472790  24.2703060
  22.9249380  46.5945270  24.2215090  20.6096480  36.9636850  18.0377210
  19.7213180  37.3052820  17.9357090  20.8937670  36.7637170  17.1458040
  18.5729490  39.5642500  23.9216910  19.1445600  38.7964700  23.9220550
  18.5731030  39.8631260  23.0123520  22.7857870  35.5468350  19.0715590
  22.8924620  36.4472080  19.3784350  21.8750230  35.4986320  18.7810240
  20.4341030  37.4687360  24.3168180  21.1151140  37.7325730  24.9355580
  20.1189080  36.6288230  24.6506190  18.6655990  43.9529120  16.5433720
  18.2883970  44.4416220  15.8118620  18.9229060  44.6254400  17.1740250
  28.6494760  36.6911340  15.7346510  27.7098430  36.8525300  15.8198970
  28.9678020  37.4097020  15.1882500  30.8687670  41.2201450  16.2487350
  31.3080950  40.3823880  16.1025170  31.5816090  41.8530850  16.3351490
  34.4504810  32.4744260  14.5628390  34.1377470  32.5671090  15.4627460
  35.2117280  33.0525290  14.5125820  20.9686950  39.8404060  19.0205730
  20.8484550  40.5666150  18.4087000  20.6587840  39.0706970  18.5433640
  18.6072320  43.0119200  24.8274370  18.6852740  43.1467970  23.8830090
  19.2214000  42.3035090  25.0202490  19.8519950  44.7119390  21.2380550
  19.4448030  44.8533980  20.3834150  20.7432960  44.4279550  21.0351760
  31.6453230  49.1466640  17.5731600  31.4854370  48.8569580  18.4713430
  31.4799940  48.3706770  17.0376830  24.1241610  48.9265170  19.3503220
  23.9484090  48.0100710  19.1371020  23.2697350  49.2852460  19.5901020
  31.3479360  46.6554200  16.1329600  30.6544520  46.6531490  15.4731880
  32.0902220  46.2313520  15.7023770  18.6631840  44.0533370  27.3668830
  18.8262880  43.5838730  26.5488200  19.1284290  43.5456930  28.0317670
  26.5509430  32.8049830  17.2835230  25.9263610  32.8009700  18.0088540
  26.4639550  31.9380790  16.8871200  23.2264830  38.3072700  20.1310650
  23.0005750  38.0909870  21.0357270  22.4457360  38.7401160  19.7856620
  18.0991630  33.5400410  22.9834780  17.8104680  34.1103270  23.6959760
  18.8437390  33.0604860  23.3466010  18.2861860  37.4820530  14.1937500
  18.2036530  38.4251290  14.3352490  17.9344920  37.3395440  13.3149850
  21.9362370  36.0986050  22.2202060  21.5962420  36.5761280  22.9769110
  21.1739690  35.6451170  21.8603160  26.1480140  37.2171640  16.2514610
  26.2692960  37.1758120  17.2000430  25.7628650  38.0795790  16.0961340
  25.1601640  39.5272780  15.6497910  24.5918540  39.0791030  15.0233820
  25.8690640  39.8865560  15.1163060  20.2370820  43.4284800  29.5264640
  19.8525610  42.7878470  30.1247600  20.5483010  44.1320920  30.0959370
  19.2508450  35.0205030  21.1366730  18.9655370  34.6560700  21.9745350
  19.1887310  34.2885490  20.5229870  22.7049120  43.5230970  17.9224320
  21.9311380  42.9828590  17.7623040  23.4343750  43.0037580  17.5842080
  22.7486520  43.1911350  21.5603130  23.2665190  42.3879610  21.5060020
  22.2970540  43.1290490  22.4019960  27.6356020  44.4577630  16.8330430
  27.9771720  45.2019860  16.3373750  26.8068730  44.7708750  17.1955260
  18.7439110  40.1563980  15.0963430  19.6133960  40.4388780  15.3799350
  18.2529430  40.9699850  14.9812240  25.9073920  41.5437190  19.2171710
  26.3636700  42.3542440  19.4431900  25.5562130  41.2260330  20.0490200
  21.8085700  31.8874840  19.6894230  21.6800330  31.8792740  20.6379150
  20.9847720  32.2257930  19.3385240  33.3294330  45.3424500  14.8880600
  33.1031910  44.6254940  15.4805240  32.9390530  45.0936940  14.0502350
  19.1110360  49.3691360  15.6625060  19.4708000  49.9680700  15.0082330
  18.9702700  49.9151250  16.4360090  32.9110580  43.2596440  16.5494760
  32.6232280  43.7209130  17.3372640  33.7062750  42.7994210  16.8178980
  19.0952220  47.6346220  30.1367460  19.2043340  46.6940960  29.9962850
  18.4432780  47.9000970  29.4881190  25.1278980  46.7522560  16.4798730
  25.1189080  47.4852250  15.8643240  24.2077340  46.5054140  16.5725690
  20.7285620  41.9737450  17.2245490  20.1213570  42.7136350  17.2340790
  21.2034970  42.0636810  16.3983690  28.1138580  46.8150800  15.1423920
  28.2150560  46.6114790  14.2125900  27.2140320  46.5609080  15.3471700
  25.6364470  37.3731160  19.1247820  24.9280620  37.8417500  19.5661430
  25.9208950  36.7153170  19.7593010  23.8399490  35.6816240  16.4998530
  24.6890020  36.1186390  16.4338720  23.4730760  35.9936500  17.3270590
  22.7390910  41.9348600  14.9734060  23.5054180  41.8229960  15.5359490
  22.8165600  41.2386570  14.3210830  21.4337670  39.3673670  15.6566950
  21.5141260  38.4201180  15.7684350  22.3257420  39.6980550  15.7627610
  22.2352380  49.5169060  22.7601490  22.9714860  48.9684520  23.0310060
  22.6193300  50.3825070  22.6207480  19.1197860  45.5842630  18.6343000
  18.1937640  45.8263770  18.6248410  19.5854290  46.4116890  18.5127750
  25.3454690  48.6899370  14.5827060  26.1383300  48.9788200  14.1308850
  24.8259040  48.2591540  13.9039540  34.3984860  47.9169500  16.0063800
  34.1126370  47.5034640  15.1917980  34.2004410  48.8457210  15.8864320
  25.8632090  43.9102780  14.4469410  25.7582730  43.2955130  15.1730790
  25.6956310  43.3868670  13.6632420  29.1034820  42.9722810  15.0511400
  28.5544920  43.4192110  15.6954140  29.7254080  42.4672060  15.5749070
  24.7709940  41.9313730  16.9476700  25.1926360  41.7653600  17.7908090
  24.8960780  41.1213960  16.4531840  27.2837580  40.9551340  14.1953800
  27.8043240  40.2400360  13.8294950  27.9305980  41.5937210  14.4954310
  23.6668840  38.0046960  13.8934860  23.4657900  37.1414320  14.2548200
  23.4960890  37.9180320  12.9556460  22.4651640  35.1047580  13.8812740
  22.7677540  35.1115010  12.9731890  23.2046230  34.7545440  14.3780400
  25.6836570  34.0482200  14.8668940  25.3358570  33.3706190  14.2871390
  25.8849340  33.5871710  15.6812330  27.8485610  49.0362950  16.4855540
  28.7436400  49.3747920  16.5074300  27.8803240  48.3142360  15.8579820
  21.4881770  44.4090000  14.7142540  21.9256640  44.9519670  15.3700120
  21.9729500  43.5836950  14.7238880  18.7027570  47.1979030  22.1662800
  19.0330580  46.3300090  21.9341440  19.1318570  47.4037550  22.9967760
  23.2989490  45.5288040  19.8264770  22.9985030  45.4053010  20.7268680
  23.1926980  44.6696630  19.4180500  19.1917780  48.0649620  24.9044430
  18.7548770  48.2450420  25.7368580  19.7595460  48.8224240  24.7626150
  36.0681410  45.3084440  14.5291450  35.2374370  45.3761090  14.9998680
  36.2453240  46.1988560  14.2258310  35.5237870  42.0531920  17.0325650
  36.2856780  42.6228570  17.1385340  35.5392240  41.4859120  17.8033960
  19.0242210  40.5769850  21.2633310  18.3691050  40.3081490  20.6193010
  19.8620160  40.4674330  20.8135290  35.5757040  42.3466290  14.1898170
  35.8505880  43.2545170  14.0617390  35.3867780  42.2828820  15.1260160
  20.0618140  40.9622420  25.8036650  20.4291180  40.8749820  26.6832670
  19.4928960  40.1988970  25.7043510  19.6134140  37.8731510  29.7095070
  18.7190190  37.8398270  30.0488780  20.1531690  38.0718300  30.4746320
  18.2380290  37.7868780  17.2058640  17.3344370  38.0498980  17.0310300
  18.7220910  38.0579950  16.4258600  20.7807500  36.8434320  15.1153020
  21.4899200  36.4217540  14.6300300  20.0647440  36.9109550  14.4836370
  20.4281660  32.8973650  14.1555670  21.1509790  33.4382590  14.4736890
  20.7006180  32.6237070  13.2797210  20.1173850  32.1479840  24.0578290
  20.7650040  31.5977220  23.6173450  20.5375690  32.4022990  24.8794100
  36.5550740  34.2334990  14.1971070  37.4800050  34.1016170  13.9889360
  36.5326530  34.3127810  15.1507520  21.4770220  45.4755110  30.9656800
  21.4339850  45.1048020  31.8471260  21.6081230  46.4132680  31.1058620
  21.3158250  48.4217360  28.0854580  20.7218570  48.2902060  28.8244620
  21.3082090  47.5855500  27.6196680  20.9470480  45.7875740  27.0362620
  20.2204540  45.1681030  26.9688570  21.0079630  46.1816350  26.1660700
  24.5515580  48.0020740  23.8212030  25.0680600  47.3908100  23.2960290
  25.2012960  48.5049520  24.3123040  19.2300480  49.1050130  20.2459380
  19.0622520  48.4720810  20.9441270  18.3634990  49.3109530  19.8953570
  19.8528500  32.9366910  17.7491240  20.6107860  33.0495790  17.1755270
  19.3905670  33.7736110  17.7034670  20.8363180  47.7983360  17.6909520
  20.3110800  48.1791390  16.9871480  20.7607760  48.4234130  18.4119230
  22.2253650  33.4630960  16.2893210  22.7546410  32.6760760  16.1601160
  22.8581970  34.1422150  16.5228740  24.4191490  33.2006100  19.3438600
  23.7894230  32.4993410  19.5108730  23.8796630  33.9610230  19.1271760
  23.4356150  49.7465740  16.5658770  24.1674970  49.4625020  16.0182660
  23.6949820  49.5079020  17.4558150  22.5970940  45.8630470  16.5705100
  21.9679820  46.3315570  17.1190930  22.7118770  45.0179690  17.0051290
  30.0520660  39.9136130   2.7206300  29.9714710  38.9990740   2.4498010
  29.6385080  40.4103200   2.0146010  28.1838700  41.6915150   4.6015570
  27.4080800  41.2115590   4.8914140  28.8351630  41.0120800   4.4271730
  22.2004530  42.0034960   5.4791330  21.3689410  41.7483670   5.8787840
  22.8085510  42.0745730   6.2149250  32.2046130  46.0975340   3.3814700
  31.7427660  45.3262580   3.7101870  33.0171680  46.1241410   3.8867150
  22.1805790  46.0375050   5.6749350  22.4833830  45.1472790   5.4959570
  22.9249380  46.5945270   5.4471600  18.5729490  39.5642500   5.1473420
  19.1445600  38.7964700   5.1477060  18.5731030  39.8631260   4.2380030
  28.4309440  48.3833350   3.0018690  27.8120880  48.8390850   2.4313130
  29.2861220  48.5384810   2.6008390  27.6247690  44.3672340   4.6085730
  27.5555970  43.4262280   4.4474860  28.3867550  44.4573750   5.1808300
  19.8154360  34.9726860   6.9342350  19.6357200  34.0752610   7.2145110
  19.4134440  35.5198730   7.6089300  28.6552860  37.1742720   4.8354660
  29.0317680  36.3014600   4.7228330  28.5572370  37.5101420   3.9445100
  32.4376980  34.6693160   1.7683000  33.2586600  34.1789730   1.8108480
  32.4711060  35.2590820   2.5214840  20.4341030  37.4687360   5.5424690
  21.1151140  37.7325730   6.1612090  20.1189080  36.6288230   5.8762700
  24.6265600  38.5154720   4.6297280  25.1343820  39.0135690   5.2702300
  25.1578840  37.7389920   4.4536640  36.7276530  36.6859910   8.3326630
  36.0228700  37.0741620   7.8141740  36.9934450  37.3810200   8.9347560
  22.9101700  33.1553280   8.8960700  22.9120140  33.6725670   8.0906600
  22.0806010  32.6783460   8.8730630  24.1604550  42.7948460   7.0734200
  23.8273930  43.4217380   7.7155270  24.3371230  43.3210340   6.2935870
  32.6738460  36.6093540   4.5410540  31.9694030  36.8978430   5.1213650
  33.0350620  37.4193650   4.1810100  22.5917030  34.8663240   6.9031150
  22.9333840  35.7105290   6.6085020  21.6532840  35.0146980   7.0196490
  23.3723650  44.7629260   8.8883380  23.9897650  45.4380340   8.6067830
  22.5116770  45.1717240   8.7970880  34.2901240  46.2268670   6.8038020
  33.6064760  46.8967780   6.7954690  34.8295530  46.4249320   6.0382880
  35.7425380  36.0548330   4.9319750  34.7950290  36.0887310   5.0635180
  36.0675370  36.8687280   5.3169110  26.2744920  32.3545510   3.2275740
  26.5819900  31.7992400   2.5111240  25.3445620  32.4889970   3.0448730
  31.8259980  48.0712800   5.5183200  31.8387140  47.6675090   4.6505460
  31.2735200  48.8460090   5.4144630  31.2245420  42.9742640   6.8465810
  31.6414210  42.7602750   6.0119270  31.9485240  43.2315430   7.4174430
  35.1707520  41.3729860   6.9382050  34.3426150  41.4422950   6.4632180
  35.7658000  41.9584170   6.4697880  32.1349530  38.1599180   7.8836920
  31.7220710  38.9852890   8.1376910  31.4025480  37.5744220   7.6913280
  24.2682320  40.9459080   2.7455590  23.8639320  40.2336330   2.2501490
  24.3545440  40.6012320   3.6343630  24.7364020  44.6326640   4.9094800
  24.4392310  44.0272110   4.2302580  25.6863840  44.6703950   4.7984160
  22.9810940  37.7202290   6.5254630  23.5325530  37.8297630   5.7507880
  23.4954450  38.0939890   7.2409860  32.8249630  48.2058510   8.5717900
  32.3480190  49.0130700   8.3790510  32.1411420  47.5536840   8.7244110
  23.8282450  44.3708330  11.5602600  22.9310980  44.5948300  11.8076000
  23.8535320  44.4943270  10.6114000  22.6553670  41.2421650  10.1359970
  22.5161440  42.1144450  10.5047370  21.7735030  40.8994460   9.9907910
  24.4534020  47.1843350  12.3445120  24.4249450  47.5886300  11.4773550
  24.2898990  46.2553710  12.1816720  36.4048840  47.9670450  13.6409290
  36.8808560  48.4453340  14.3198370  37.0256000  47.8987940  12.9154790
  18.6072320  43.0119200   6.0530880  18.6852740  43.1467970   5.1086600
  19.2214000  42.3035090   6.2459000  35.8082090  45.1583300  10.8009300
  35.9345150  44.9195180   9.8826480  35.8503470  44.3267840  11.2731380
  29.6698830  48.8611300   9.3704110  30.1843500  48.7719310  10.1726540
  28.8267910  49.2071000   9.6632020  35.6606100  37.2115760  11.7659040
  35.0450370  37.7195430  11.2374500  35.3402520  36.3114090  11.7084980
  18.6631840  44.0533370   8.5925340  18.8262880  43.5838730   7.7744710
  19.1284290  43.5456930   9.2574180  23.4350610  33.1839130   3.6285910
  22.9918760  33.9648670   3.2970430  23.9935600  33.5069020   4.3356850
  27.7220420  36.0507650   9.2321230  27.2599790  36.2590670  10.0441170
  27.3198530  35.2367000   8.9291900  32.7224930  37.2716600  10.3617890
  31.8718520  36.9722350  10.6826960  32.5626720  37.5158610   9.4501710
  29.8174640  38.7718350  12.4616680  30.1428050  37.9382100  12.1218910
  30.6054970  39.2946870  12.6095010  25.4726510  33.7286460   5.4875510
  25.7698840  34.6349290   5.4067530  26.0212070  33.2405240   4.8735080
  25.6664040  39.2058280  12.0227430  25.5707640  38.2653010  11.8727830
  26.5096020  39.4273350  11.6275500  20.7974580  35.6171950  10.1761210
  20.4037970  36.4647160  10.3833990  20.1092980  34.9798320  10.3669850
  27.3719630  35.7006920  13.2457950  26.6817950  35.5079120  13.8804040
  28.1151930  35.9841560  13.7782250  18.0991630  33.5400410   4.2091290
  17.8104680  34.1103270   4.9216270  18.8437390  33.0604860   4.5722520
  29.6482600  39.5405360   6.0811870  28.9163720  40.0492170   6.4301970
  29.2506940  38.7235340   5.7800650  26.0859990  36.2159560   4.4864360
  26.0896050  35.7749510   3.6368900  26.9811110  36.5376890   4.5936180
  21.9362370  36.0986050   3.4458570  21.5962420  36.5761280   4.2025620
  21.1739690  35.6451170   3.0859670  30.1108510  34.9939040   5.4934810
  30.1281250  35.4447690   6.3376660  29.8624090  34.0944680   5.7068250
  33.5379260  32.4071220  11.3321190  33.8625030  31.6760880  11.8579170
  33.5735770  32.0884860  10.4302180  20.2370820  43.4284800  10.7521150
  19.8525610  42.7878470  11.3504110  20.5483010  44.1320920  11.3215880
  26.3867960  40.2761340   6.2329770  26.7538090  39.8019910   6.9791110
  26.1973020  41.1502910   6.5738110  19.2508450  35.0205030   2.3623240
  18.9655370  34.6560700   3.2001860  19.1887310  34.2885490   1.7486380
  24.1767330  39.3169980   8.5513980  23.8724400  40.1961960   8.7764340
  25.1313790  39.3769770   8.5871420  33.4637100  42.5196330   4.9407220
  34.1836220  43.0151620   4.5503330  33.2618920  41.8414220   4.2961090
  28.8455900  42.5905390  10.8276220  28.7793210  41.6701060  10.5733810
  28.2161040  42.6880830  11.5420860  22.7486520  43.1911350   2.7859640
  23.2665190  42.3879610   2.7316530  22.2970540  43.1290490   3.6276470
  20.2331060  40.1572720   9.6985340  19.8746000  40.8226570  10.2858680
  19.9385620  39.3256270  10.0697960  23.4344180  40.6156960  12.5824890
  23.1344320  40.7614140  11.6852710  24.2055420  40.0562250  12.4898280
  28.7772630  45.4125960  10.5780020  28.7917170  44.4806920  10.3598930
  28.0697730  45.4985720  11.2169790  34.9883840  42.0533300   9.9248600
  34.2632030  42.6462080   9.7277990  35.5159300  42.0456840   9.1261970
  30.5183430  43.7793470   3.4232450  30.8707250  43.1821600   2.7633820
  29.6345760  43.4537700   3.5940700  28.2106530  47.0543530   7.6720520
  28.8548750  47.2602910   8.3493940  28.5735970  46.2931930   7.2191370
  29.4838610  45.0575880   6.3897970  30.1260840  44.3569040   6.5030140
  30.0087960  45.8374320   6.2094860  31.2576230  45.8570780   9.5934030
  31.5932470  46.4437470  10.2711950  30.3376570  45.7263490   9.8231820
  18.8079630  33.6465960  10.3757440  18.0938150  33.8462880  10.9810050
  19.2274670  32.8705530  10.7472240  19.0952220  47.6346220  11.3623970
  19.2043340  46.6940960  11.2219360  18.4432780  47.9000970  10.7137700
  27.0864810  45.9062110  12.7622090  26.7661680  45.1871350  13.3067780
  26.4123170  46.5817180  12.8358150  30.3018410  36.1388270   8.1258890
  30.6699230  35.3183480   8.4538460  29.4416610  36.1990160   8.5414540
  27.2620400  38.7927860   8.3496860  27.7605650  39.2673680   9.0148710
  27.4043350  37.8691380   8.5566890  34.4687260  35.0095820   9.1925250
  33.9660860  35.7501220   9.5319060  35.2843920  35.3979820   8.8762040
  32.7609270  40.2529000   2.6386610  31.8199410  40.2679230   2.8134300
  33.0753340  39.4664960   3.0846910  34.7634850  47.4237850   4.3140870
  34.8882270  48.2469020   4.7864680  35.6300410  47.2128580   3.9665020
  22.2352380  49.5169060   3.9858000  22.9714860  48.9684520   4.2566570
  22.6193300  50.3825070   3.8463990  21.2410660  48.7015130  13.1743580
  22.0423390  49.0227180  13.5878980  20.7262480  48.3410710  13.8963490
  30.0775290  44.8095000  13.1218990  29.4713450  44.8326600  12.3814740
  29.7729400  44.0778040  13.6586240  31.5075660  48.5375290  11.7328400
  32.4597410  48.4533310  11.6828640  31.3603880  49.2017000  12.4062190
  18.9608470  41.1888590  12.1179630  19.4647490  40.6095870  12.6895860
  18.2215890  41.4728820  12.6556000  26.0146410  42.5959580  11.6515150
  25.2492080  43.1644580  11.5669820  26.1962370  42.3035790  10.7583380
  33.1569760  44.3264910  12.2090170  33.8979230  44.6640670  11.7057630
  32.3942440  44.4956970  11.6559940  20.9931550  39.3318180  13.0129700
  21.0336890  39.0332050  13.9214930  21.8477050  39.7325790  12.8537220
  22.9337360  37.9110280  10.9804190  22.4033820  37.4201230  10.3527530
  23.6025430  38.3394480  10.4462120  31.8315420  42.3779740  10.7445380
  32.2456440  42.5324820  11.5935800  30.8966420  42.5034960  10.9071160
  32.3037590  39.7175900  12.7484530  32.8858360  38.9628220  12.6605010
  32.4799360  40.2483340  11.9716010  23.4209660  34.8772650  11.0601480
  23.3266530  34.2593400  10.3352350  22.8407050  35.6038940  10.8331390
  26.1871100  33.4345890   8.0928870  25.7388400  33.4570150   7.2474420
  25.5536300  33.0364910   8.6899170  26.5930650  42.3300220   8.7141310
  27.0118760  43.1732950   8.5417550  25.6739280  42.4672260   8.4848090
  28.9294550  40.0616400  10.0979150  29.0490760  39.4657540  10.8373990
  29.7888550  40.0986090   9.6780450  31.2682450  40.6153590   8.6741660
  30.7417670  41.1396210   8.0706800  31.6113790  41.2480980   9.3051390
  24.4438070  48.6353230   9.8299040  23.9059160  49.3599290   9.5107740
  24.6972030  48.1583570   9.0396380  25.6963320  36.6037750  11.3554970
  26.2863010  36.2953600  12.0432790  24.8783560  36.1317500  11.5114870
  30.5156750  36.2203560  11.5887990  29.8272270  35.5585100  11.5237980
  31.2362770  35.7741830  12.0336450  27.3000280  49.8704440  10.0885690
  27.2258980  50.7739580  10.3958060  26.3979120  49.5516340  10.0607760
  18.7027570  47.1979030   3.3919310  19.0330580  46.3300090   3.1597950
  19.1318570  47.4037550   4.2224270  19.1917780  48.0649620   6.1300940
  18.7548770  48.2450420   6.9625090  19.7595460  48.8224240   5.9882660
  34.8279960  47.5666620  10.4178250  34.2281950  47.6259180   9.6742170
  34.9573860  46.6271600  10.5475100  19.0242210  40.5769850   2.4889820
  18.3691050  40.3081490   1.8449520  19.8620160  40.4674330   2.0391800
  36.5297840  42.9082020   3.1024090  36.9006670  42.1249340   2.6960060
  37.1699770  43.5971120   2.9241390  33.5131600  44.2918600   8.5154410
  32.6991440  44.7215760   8.7780200  33.9205800  44.9037010   7.9023460
  20.0618140  40.9622420   7.0293160  20.4291180  40.8749820   7.9089180
  19.4928960  40.1988970   6.9300020  34.8622000  39.4306800  10.0423630
  34.6308090  39.2019550   9.1421580  35.1226550  40.3506350   9.9968520
  19.6134140  37.8731510  10.9351580  18.7190190  37.8398270  11.2745290
  20.1531690  38.0718300  11.7002830  33.3010070  34.6563230  12.8203330
  34.1780250  34.6646630  13.2037330  33.3130910  33.9194070  12.2095680
  34.7473340  38.5092770   3.7091350  35.2710820  38.0155420   3.0781520
  35.3332760  38.6443130   4.4538920  34.9263060  38.5932640   7.2310900
  33.9765770  38.5596180   7.3455890  35.1076070  39.5032750   6.9960670
  20.1173850  32.1479840   5.2834800  20.7650040  31.5977220   4.8429960
  20.5375690  32.4022990   6.1050610  35.6660470  36.4027070   2.1821440
  35.5559750  36.2483110   3.1203710  36.4268060  35.8748010   1.9396850
  34.0126190  32.3421200   8.6404440  34.6498410  32.9555340   9.0063630
  34.1601080  32.3781860   7.6953670  19.8705850  32.3035510   8.0260120
  19.5220670  32.7599330   8.7918300  19.5393550  31.4092640   8.1082550
  21.4770220  45.4755110  12.1913310  21.4339850  45.1048020  13.0727770
  21.6081230  46.4132680  12.3315130  25.1776250  47.0314700   7.7923030
  24.9367610  47.2989260   6.9053550  26.1178890  47.2020430   7.8473890
  27.3830670  33.4947390  11.5479540  27.3219560  34.0869220  12.2974950
  28.3231050  33.3873350  11.4029800  30.0205230  33.1517450  11.1871830
  30.6345640  33.4696740  10.5252910  30.5654790  32.6666040  11.8067690
  36.4380410  49.0509080   8.5933670  35.9438690  49.4477950   7.8760800
  35.8293700  48.4258290   8.9870950  20.5426490  31.8311710  11.3010890
  21.0909480  31.6499760  10.5377000  20.6081800  31.0405820  11.8367200
  21.3158250  48.4217360   9.3111090  20.7218570  48.2902060  10.0501130
  21.3082090  47.5855500   8.8453190  30.7613270  31.7149590   7.5141120
  29.8873110  32.0484700   7.3114050  30.6524020  31.2422770   8.3392990
  31.6685250  33.9220460   8.8982840  31.3398610  33.1072220   8.5184570
  32.6167550  33.8790270   8.7748530  34.1219860  49.6932500   5.8720410
  33.6622830  50.4448310   5.4978430  33.4932320  48.9738970   5.8135210
  20.9470480  45.7875740   8.2619130  20.2204540  45.1681030   8.1945080
  21.0079630  46.1816350   7.3917210  24.5515580  48.0020740   5.0468540
  25.0680600  47.3908100   4.5216800  25.2012960  48.5049520   5.5379550
  27.2911080  48.8929230   5.8737520  27.5788890  48.6383530   4.9970530
  27.8034300  48.3406590   6.4643090  28.5088090  32.6319430   6.4534030
  27.7259880  33.1064930   6.7330790  28.2151020  31.7274260   6.3447210
  33.0609160  33.3342530   4.4983120  33.5017250  33.2787630   3.6504720
  32.7916750  34.2500540   4.5693300  34.9247730  32.9657770   2.5091940
  34.8636130  32.0218990   2.3622960  35.7039760  33.0737860   3.0545400
  30.8967290  31.7148630   3.2033130  31.4996660  32.2868840   3.6781650
  30.1560280  32.2788070   2.9807030  27.3583440  49.8145330  13.2405720
  28.2850750  49.5789600  13.2841680  27.3433870  50.6417330  12.7591750
  24.5447050  32.4790080  13.0047600  24.2631320  32.9823680  12.2408420
  24.9266750  31.6811830  12.6389730  31.1462510  31.8943660  13.5828070
  31.0327960  32.2138270  14.4779590  31.9632250  32.2956170  13.2865350
  33.9261000  49.0415190  13.0646760  34.7186320  48.5464420  12.8572720
  34.2194150  49.7205330  13.6722370  30.0520660  21.1392640  59.0436770
  29.9714710  20.2247250  58.7728480  29.6385080  21.6359710  58.3376480
  28.1838700  22.9171660  60.9246040  27.4080800  22.4372100  61.2144610
  28.8351630  22.2377310  60.7502200  22.2004530  23.2291470  61.8021800
  21.3689410  22.9740180  62.2018310  22.8085510  23.3002240  62.5379720
  32.2046130  27.3231850  59.7045170  31.7427660  26.5519090  60.0332340
  33.0171680  27.3497920  60.2097620  22.1805790  27.2631560  61.9979820
  22.4833830  26.3729300  61.8190040  22.9249380  27.8201780  61.7702070
  20.6096480  18.1893360  55.5864190  19.7213180  18.5309330  55.4844070
  20.8937670  17.9893680  54.6945020  18.5729490  20.7899010  61.4703890
  19.1445600  20.0221210  61.4707530  18.5731030  21.0887770  60.5610500
  28.4309440  29.6089860  59.3249160  27.8120880  30.0647360  58.7543600
  29.2861220  29.7641320  58.9238860  27.6247690  25.5928850  60.9316200
  27.5555970  24.6518790  60.7705330  28.3867550  25.6830260  61.5038770
  28.6552860  18.3999230  61.1585130  29.0317680  17.5271110  61.0458800
  28.5572370  18.7357930  60.2675570  22.7857870  16.7724860  56.6202570
  22.8924620  17.6728590  56.9271330  21.8750230  16.7242830  56.3297220
  32.4376980  15.8949670  58.0913470  33.2586600  15.4046240  58.1338950
  32.4711060  16.4847330  58.8445310  20.4341030  18.6943870  61.8655160
  21.1151140  18.9582240  62.4842560  20.1189080  17.8544740  62.1993170
  24.6265600  19.7411230  60.9527750  25.1343820  20.2392200  61.5932770
  25.1578840  18.9646430  60.7767110  29.2972790  24.4929100  56.7181070
  28.6790060  24.9578550  56.1543790  29.8096040  25.1856580  57.1350580
  32.6738460  17.8350050  60.8641010  31.9694030  18.1234940  61.4444120
  33.0350620  18.6450160  60.5040570  18.6655990  25.1785630  54.0920700
  18.2883970  25.6672730  53.3605600  18.9229060  25.8510910  54.7227230
  34.2901240  27.4525180  63.1268490  33.6064760  28.1224290  63.1185160
  34.8295530  27.6505830  62.3613350  35.7425380  17.2804840  61.2550220
  34.7950290  17.3143820  61.3865650  36.0675370  18.0943790  61.6399580
  26.2744920  13.5802020  59.5506210  26.5819900  13.0248910  58.8341710
  25.3445620  13.7146480  59.3679200  31.8259980  29.2969310  61.8413670
  31.8387140  28.8931600  60.9735930  31.2735200  30.0716600  61.7375100
  33.1205400  26.0185530  56.9303840  33.0101730  25.0759860  57.0553260
  33.1173650  26.3801170  57.8166600  28.6625680  21.6450850  56.2866330
  27.7354960  21.5788230  56.5154800  28.8150500  22.5830980  56.1721570
  28.6494760  17.9167850  53.2833490  27.7098430  18.0781810  53.3685950
  28.9678020  18.6353530  52.7369480  35.1707520  22.5986370  63.2612520
  34.3426150  22.6679460  62.7862650  35.7658000  23.1840680  62.7928350
  32.6922970  23.2071150  56.7901580  32.0735390  22.8690700  56.1427880
  32.6747420  22.5630910  57.4980770  24.2682320  22.1715590  59.0686060
  23.8639320  21.4592840  58.5731960  24.3545440  21.8268830  59.9574100
  24.7364020  25.8583150  61.2325270  24.4392310  25.2528620  60.5533050
  25.6863840  25.8960460  61.1214630  30.8687670  22.4457960  53.7974330
  31.3080950  21.6080390  53.6512150  31.5816090  23.0787360  53.8838470
  28.9783050  27.3854030  57.7655570  29.4178960  28.1278360  57.3510960
  28.9169940  27.6280600  58.6894530  34.4504810  13.7000770  52.1115370
  34.1377470  13.7927600  53.0114440  35.2117280  14.2781800  52.0612800
  20.9686950  21.0660570  56.5692710  20.8484550  21.7922660  55.9573980
  20.6587840  20.2963480  56.0920620  18.6072320  24.2375710  62.3761350
  18.6852740  24.3724480  61.4317070  19.2214000  23.5291600  62.5689470
  19.8519950  25.9375900  58.7867530  19.4448030  26.0790490  57.9321130
  20.7432960  25.6536060  58.5838740  31.6453230  30.3723150  55.1218580
  31.4854370  30.0826090  56.0200410  31.4799940  29.5963280  54.5863810
  24.1241610  30.1521680  56.8990200  23.9484090  29.2357220  56.6858000
  23.2697350  30.5108970  57.1388000  31.3479360  27.8810710  53.6816580
  30.6544520  27.8788000  53.0218860  32.0902220  27.4570030  53.2510750
  30.9129290  29.5073420  57.7565070  31.3686240  28.7262800  58.0703690
  31.2521810  30.2180240  58.3006250  23.4350610  14.4095640  59.9516380
  22.9918760  15.1905180  59.6200900  23.9935600  14.7325530  60.6587320
  26.5509430  14.0306340  54.8322210  25.9263610  14.0266210  55.5575520
  26.4639550  13.1637300  54.4358180  25.4726510  14.9542970  61.8105980
  25.7698840  15.8605800  61.7298000  26.0212070  14.4661750  61.1965550
  23.2264830  19.5329210  57.6797630  23.0005750  19.3166380  58.5844250
  22.4457360  19.9657670  57.3343600  30.4562590  19.5392580  56.2788280
  29.8571480  20.2628380  56.0951900  31.0042200  19.4769360  55.4964730
  29.0627460  18.1756120  58.3091560  29.4557030  18.4928320  57.4960250
  29.4244310  17.2968000  58.4236080  18.0991630  14.7656920  60.5321760
  17.8104680  15.3359780  61.2446740  18.8437390  14.2861370  60.8952990
  18.2861860  18.7077040  51.7424480  18.2036530  19.6507800  51.8839470
  17.9344920  18.5651950  50.8636830  29.6482600  20.7661870  62.4042340
  28.9163720  21.2748680  62.7532440  29.2506940  19.9491850  62.1031120
  26.0859990  17.4416070  60.8094830  26.0896050  17.0006020  59.9599370
  26.9811110  17.7633400  60.9166650  21.9362370  17.3242560  59.7689040
  21.5962420  17.8017790  60.5256090  21.1739690  16.8707680  59.4090140
  26.1480140  18.4428150  53.8001590  26.2692960  18.4014630  54.7487410
  25.7628650  19.3052300  53.6448320  30.1108510  16.2195550  61.8165280
  30.1281250  16.6704200  62.6607130  29.8624090  15.3201190  62.0298720
  25.1601640  20.7529290  53.1984890  24.5918540  20.3047540  52.5720800
  25.8690640  21.1122070  52.6650040  19.2508450  16.2461540  58.6853710
  18.9655370  15.8817210  59.5232330  19.1887310  15.5142000  58.0716850
  22.7049120  24.7487480  55.4711300  21.9311380  24.2085100  55.3110020
  23.4343750  24.2294090  55.1329060  33.4637100  23.7452840  61.2637690
  34.1836220  24.2408130  60.8733800  33.2618920  23.0670730  60.6191560
  28.9247040  15.1390800  55.4067080  28.1111650  14.6403970  55.3312390
  28.7308990  15.9789050  54.9903430  31.6395430  19.5110450  53.7029240
  32.5275050  19.8227680  53.5280580  31.6100520  18.6382700  53.3109820
  22.7486520  24.4167860  59.1090110  23.2665190  23.6136120  59.0547000
  22.2970540  24.3547000  59.9506940  27.6356020  25.6834140  54.3817410
  27.9771720  26.4276370  53.8860730  26.8068730  25.9965260  54.7442240
  33.9109700  20.8222290  53.1709100  33.8273420  21.2536510  52.3205540
  34.6303890  21.2820640  53.6035920  34.9396950  27.6764550  55.8991230
  34.2973110  27.0220170  56.1734950  34.5527610  28.0819640  55.1231900
  30.5183430  25.0049980  59.7462920  30.8707250  24.4078110  59.0864290
  29.6345760  24.6794210  59.9171170  26.6046710  25.7647670  57.1533330
  27.2917840  26.3116880  57.5340920  25.8179130  26.3088400  57.1882940
  18.7439110  21.3820490  52.6450410  19.6133960  21.6645290  52.9286330
  18.2529430  22.1956360  52.5299220  25.9073920  22.7693700  56.7658690
  26.3636700  23.5798950  56.9918880  25.5562130  22.4516840  57.5977180
  21.8085700  13.1131350  57.2381210  21.6800330  13.1049250  58.1866130
  20.9847720  13.4514440  56.8872220  29.4838610  26.2832390  62.7128440
  30.1260840  25.5825550  62.8260610  30.0087960  27.0630830  62.5325330
  33.3294330  26.5681010  52.4367580  33.1031910  25.8511450  53.0292220
  32.9390530  26.3193450  51.5989330  19.1110360  30.5947870  53.2112040
  19.4708000  31.1937210  52.5569310  18.9702700  31.1407760  53.9847070
  32.9110580  24.4852950  54.0981740  32.6232280  24.9465640  54.8859620
  33.7062750  24.0250720  54.3665960  25.1278980  27.9779070  54.0285710
  25.1189080  28.7108760  53.4130220  24.2077340  27.7310650  54.1212670
  20.7285620  23.1993960  54.7732470  20.1213570  23.9392860  54.7827770
  21.2034970  23.2893320  53.9470670  33.6680440  16.3201720  55.2576920
  33.0393600  16.4247390  54.5435150  33.1732360  16.5398500  56.0470800
  28.1138580  28.0407310  52.6910900  28.2150560  27.8371300  51.7612880
  27.2140320  27.7865590  52.8958680  25.6364470  18.5987670  56.6734800
  24.9280620  19.0674010  57.1148410  25.9208950  17.9409680  57.3079990
  29.6679900  15.3238330  58.1130590  29.5447680  15.3424460  57.1640100
  30.6164460  15.3717270  58.2328990  26.7556690  30.5593630  57.3858570
  27.0098190  30.5215020  56.4637940  25.8069170  30.4326960  57.3786820
  23.8399490  16.9072750  54.0485510  24.6890020  17.3442900  53.9825700
  23.4730760  17.2193010  54.8757570  32.7609270  21.4785510  58.9617080
  31.8199410  21.4935740  59.1364770  33.0753340  20.6921470  59.4077380
  22.7390910  23.1605110  52.5221040  23.5054180  23.0486470  53.0846470
  22.8165600  22.4643080  51.8697810  21.4337670  20.5930180  53.2053930
  21.5141260  19.6457690  53.3171330  22.3257420  20.9237060  53.3114590
  34.7634850  28.6494360  60.6371340  34.8882270  29.4725530  61.1095150
  35.6300410  28.4385090  60.2895490  22.2352380  30.7425570  60.3088470
  22.9714860  30.1941030  60.5797040  22.6193300  31.6081580  60.1694460
  19.1197860  26.8099140  56.1829980  18.1937640  27.0520280  56.1735390
  19.5854290  27.6373400  56.0614730  25.3454690  29.9155880  52.1314040
  26.1383300  30.2044710  51.6795830  24.8259040  29.4848050  51.4526520
  34.3984860  29.1426010  53.5550780  34.1126370  28.7291150  52.7404960
  34.2004410  30.0713720  53.4351300  25.8632090  25.1359290  51.9956390
  25.7582730  24.5211640  52.7217770  25.6956310  24.6125180  51.2119400
  29.1034820  24.1979320  52.5998380  28.5544920  24.6448620  53.2441120
  29.7254080  23.6928570  53.1236050  24.7709940  23.1570240  54.4963680
  25.1926360  22.9910110  55.3395070  24.8960780  22.3470470  54.0018820
  27.2837580  22.1807850  51.7440780  27.8043240  21.4656870  51.3781930
  27.9305980  22.8193720  52.0441290  23.6668840  19.2303470  51.4421840
  23.4657900  18.3670830  51.8035180  23.4960890  19.1436830  50.5043440
  31.1457150  14.0411700  53.9708720  31.4259440  13.1979600  54.3268140
  30.3722880  14.2734810  54.4847470  22.4651640  16.3304090  51.4299720
  22.7677540  16.3371520  50.5218870  23.2046230  15.9801950  51.9267380
  25.6836570  15.2738710  52.4155920  25.3358570  14.5962700  51.8358370
  25.8849340  14.8128220  53.2299310  27.8485610  30.2619460  54.0342520
  28.7436400  30.6004430  54.0561280  27.8803240  29.5398870  53.4066800
  21.4881770  25.6346510  52.2629520  21.9256640  26.1776180  52.9187100
  21.9729500  24.8093460  52.2725860  18.7027570  28.4235540  59.7149780
  19.0330580  27.5556600  59.4828420  19.1318570  28.6294060  60.5454740
  23.2989490  26.7544550  57.3751750  22.9985030  26.6309520  58.2755660
  23.1926980  25.8953140  56.9667480  36.0681410  26.5340950  52.0778430
  35.2374370  26.6017600  52.5485660  36.2453240  27.4245070  51.7745290
  35.5237870  23.2788430  54.5812630  36.2856780  23.8485080  54.6872320
  35.5392240  22.7115630  55.3520940  19.0242210  21.8026360  58.8120290
  18.3691050  21.5338000  58.1679990  19.8620160  21.6930840  58.3622270
  36.5297840  24.1338530  59.4254560  36.9006670  23.3505850  59.0190530
  37.1699770  24.8227630  59.2471860  35.5757040  23.5722800  51.7385150
  35.8505880  24.4801680  51.6104370  35.3867780  23.5085330  52.6747140
  31.9732650  16.5967650  53.0338780  32.3917530  16.4098630  52.1935440
  31.6668710  15.7446700  53.3441710  35.4722380  21.5091790  56.7314580
  35.0965980  20.7419720  56.2995870  34.7425500  21.8914490  57.2189510
  18.2380290  19.0125290  54.7545620  17.3344370  19.2755490  54.5797280
  18.7220910  19.2836460  53.9745580  34.7473340  19.7349280  60.0321820
  35.2710820  19.2411930  59.4011990  35.3332760  19.8699640  60.7769390
  20.7807500  18.0690830  52.6640000  21.4899200  17.6474050  52.1787280
  20.0647440  18.1366060  52.0323350  20.4281660  14.1230160  51.7042650
  21.1509790  14.6639100  52.0223870  20.7006180  13.8493580  50.8284190
  34.2373310  18.9922630  55.9714230  34.7332430  18.7593500  56.7563110
  34.0389380  18.1534470  55.5551870  20.1173850  13.3736350  61.6065270
  20.7650040  12.8233730  61.1660430  20.5375690  13.6279500  62.4281080
  35.6660470  17.6283580  58.5051910  35.5559750  17.4739620  59.4434180
  36.4268060  17.1004520  58.2627320  36.5550740  15.4591500  51.7458050
  37.4800050  15.3272680  51.5376340  36.5326530  15.5384320  52.6994500
  36.6289230  16.2302160  54.3714760  35.8340730  16.1647280  54.9007670
  36.8332510  17.1652800  54.3600110  33.5707650  30.2693710  58.3653150
  34.1666720  29.9478280  57.6887570  33.8285800  29.7965530  59.1566420
  34.1219860  30.9189010  62.1950880  33.6622830  31.6704820  61.8208900
  33.4932320  30.1995480  62.1365680  24.5515580  29.2277250  61.3699010
  25.0680600  28.6164610  60.8447270  25.2012960  29.7306030  61.8610020
  27.2911080  30.1185740  62.1967990  27.5788890  29.8640040  61.3201000
  27.8034300  29.5663100  62.7873560  28.5088090  13.8575940  62.7764500
  27.7259880  14.3321440  63.0561260  28.2151020  12.9530770  62.6677680
  33.0609160  14.5599040  60.8213590  33.5017250  14.5044140  59.9735190
  32.7916750  15.4757050  60.8923770  34.9247730  14.1914280  58.8322410
  34.8636130  13.2475500  58.6853430  35.7039760  14.2994370  59.3775870
  19.2300480  30.3306640  57.7946360  19.0622520  29.6977320  58.4928250
  18.3634990  30.5366040  57.4440550  19.8528500  14.1623420  55.2978220
  20.6107860  14.2752300  54.7242250  19.3905670  14.9992620  55.2521650
  26.3942310  16.2762690  58.2880530  25.5816820  15.9019580  57.9476410
  26.8983950  15.5207770  58.5901720  30.8967290  12.9405140  59.5263600
  31.4996660  13.5125350  60.0012120  30.1560280  13.5044580  59.3037500
  34.0401890  13.3426700  54.8003880  34.2352520  14.2410150  55.0671310
  33.2531760  13.1113780  55.2936830  20.8363180  29.0239870  55.2396500
  20.3110800  29.4047900  54.5358460  20.7607760  29.6490640  55.9606210
  22.2253650  14.6887470  53.8380190  22.7546410  13.9017270  53.7088140
  22.8581970  15.3678660  54.0715720  24.4191490  14.4262610  56.8925580
  23.7894230  13.7249920  57.0595710  23.8796630  15.1866740  56.6758740
  35.5928500  30.5827410  56.5610440  35.7680690  29.8965150  55.9171360
  34.8950070  31.1074460  56.1687110  23.4356150  30.9722250  54.1145750
  24.1674970  30.6881530  53.5669640  23.6949820  30.7335530  55.0045130
  22.5970940  27.0886980  54.1192080  21.9679820  27.5572080  54.6677910
  22.7118770  26.2436200  54.5538270  30.0520660  21.1392640  40.2693280
  29.9714710  20.2247250  39.9984990  29.6385080  21.6359710  39.5632990
  28.1838700  22.9171660  42.1502550  27.4080800  22.4372100  42.4401120
  28.8351630  22.2377310  41.9758710  22.2004530  23.2291470  43.0278310
  21.3689410  22.9740180  43.4274820  22.8085510  23.3002240  43.7636230
  20.6096480  18.1893360  36.8120700  19.7213180  18.5309330  36.7100580
  20.8937670  17.9893680  35.9201530  18.5729490  20.7899010  42.6960400
  19.1445600  20.0221210  42.6964040  18.5731030  21.0887770  41.7867010
  19.8154360  16.1983370  44.4829330  19.6357200  15.3009120  44.7632090
  19.4134440  16.7455240  45.1576280  28.6552860  18.3999230  42.3841640
  29.0317680  17.5271110  42.2715310  28.5572370  18.7357930  41.4932080
  22.7857870  16.7724860  37.8459080  22.8924620  17.6728590  38.1527840
  21.8750230  16.7242830  37.5553730  32.4376980  15.8949670  39.3169980
  33.2586600  15.4046240  39.3595460  32.4711060  16.4847330  40.0701820
  20.4341030  18.6943870  43.0911670  21.1151140  18.9582240  43.7099070
  20.1189080  17.8544740  43.4249680  24.6265600  19.7411230  42.1784260
  25.1343820  20.2392200  42.8189280  25.1578840  18.9646430  42.0023620
  36.7276530  17.9116420  45.8813610  36.0228700  18.2998130  45.3628720
  36.9934450  18.6066710  46.4834540  22.9101700  14.3809790  46.4447680
  22.9120140  14.8982180  45.6393580  22.0806010  13.9039970  46.4217610
  24.1604550  24.0204970  44.6221180  23.8273930  24.6473890  45.2642250
  24.3371230  24.5466850  43.8422850  32.6738460  17.8350050  42.0897520
  31.9694030  18.1234940  42.6700630  33.0350620  18.6450160  41.7297080
  22.5917030  16.0919750  44.4518130  22.9333840  16.9361800  44.1572000
  21.6532840  16.2403490  44.5683470  23.3723650  25.9885770  46.4370360
  23.9897650  26.6636850  46.1554810  22.5116770  26.3973750  46.3457860
  26.2744920  13.5802020  40.7762720  26.5819900  13.0248910  40.0598220
  25.3445620  13.7146480  40.5935710  31.2245420  24.1999150  44.3952790
  31.6414210  23.9859260  43.5606250  31.9485240  24.4571940  44.9661410
  28.6625680  21.6450850  37.5122840  27.7354960  21.5788230  37.7411310
  28.8150500  22.5830980  37.3978080  28.6494760  17.9167850  34.5090000
  27.7098430  18.0781810  34.5942460  28.9678020  18.6353530  33.9625990
  32.1349530  19.3855690  45.4323900  31.7220710  20.2109400  45.6863890
  31.4025480  18.8000730  45.2400260  24.2682320  22.1715590  40.2942570
  23.8639320  21.4592840  39.7988470  24.3545440  21.8268830  41.1830610
  22.9810940  18.9458800  44.0741610  23.5325530  19.0554140  43.2994860
  23.4954450  19.3196400  44.7896840  32.8249630  29.4315020  46.1204880
  32.3480190  30.2387210  45.9277490  32.1411420  28.7793350  46.2731090
  23.8282450  25.5964840  49.1089580  22.9310980  25.8204810  49.3562980
  23.8535320  25.7199780  48.1600980  30.8687670  22.4457960  35.0230840
  31.3080950  21.6080390  34.8768660  31.5816090  23.0787360  35.1094980
  22.6553670  22.4678160  47.6846950  22.5161440  23.3400960  48.0534350
  21.7735030  22.1250970  47.5394890  24.4534020  28.4099860  49.8932100
  24.4249450  28.8142810  49.0260530  24.2898990  27.4810220  49.7303700
  34.4504810  13.7000770  33.3371880  34.1377470  13.7927600  34.2370950
  35.2117280  14.2781800  33.2869310  20.9686950  21.0660570  37.7949220
  20.8484550  21.7922660  37.1830490  20.6587840  20.2963480  37.3177130
  36.4048840  29.1926960  51.1896270  36.8808560  29.6709850  51.8685350
  37.0256000  29.1244450  50.4641770  18.6072320  24.2375710  43.6017860
  18.6852740  24.3724480  42.6573580  19.2214000  23.5291600  43.7945980
  35.8082090  26.3839810  48.3496280  35.9345150  26.1451690  47.4313460
  35.8503470  25.5524350  48.8218360  29.6698830  30.0867810  46.9191090
  30.1843500  29.9975820  47.7213520  28.8267910  30.4327510  47.2119000
  35.6606100  18.4372270  49.3146020  35.0450370  18.9451940  48.7861480
  35.3402520  17.5370600  49.2571960  18.6631840  25.2789880  46.1412320
  18.8262880  24.8095240  45.3231690  19.1284290  24.7713440  46.8061160
  23.4350610  14.4095640  41.1772890  22.9918760  15.1905180  40.8457410
  23.9935600  14.7325530  41.8843830  27.7220420  17.2764160  46.7808210
  27.2599790  17.4847180  47.5928150  27.3198530  16.4623510  46.4778880
  32.7224930  18.4973110  47.9104870  31.8718520  18.1978860  48.2313940
  32.5626720  18.7415120  46.9988690  29.8174640  19.9974860  50.0103660
  30.1428050  19.1638610  49.6705890  30.6054970  20.5203380  50.1581990
  26.5509430  14.0306340  36.0578720  25.9263610  14.0266210  36.7832030
  26.4639550  13.1637300  35.6614690  25.4726510  14.9542970  43.0362490
  25.7698840  15.8605800  42.9554510  26.0212070  14.4661750  42.4222060
  23.2264830  19.5329210  38.9054140  23.0005750  19.3166380  39.8100760
  22.4457360  19.9657670  38.5600110  30.4562590  19.5392580  37.5044790
  29.8571480  20.2628380  37.3208410  31.0042200  19.4769360  36.7221240
  25.6664040  20.4314790  49.5714410  25.5707640  19.4909520  49.4214810
  26.5096020  20.6529860  49.1762480  29.0627460  18.1756120  39.5348070
  29.4557030  18.4928320  38.7216760  29.4244310  17.2968000  39.6492590
  20.7974580  16.8428460  47.7248190  20.4037970  17.6903670  47.9320970
  20.1092980  16.2054830  47.9156830  27.3719630  16.9263430  50.7944930
  26.6817950  16.7335630  51.4291020  28.1151930  17.2098070  51.3269230
  18.0991630  14.7656920  41.7578270  17.8104680  15.3359780  42.4703250
  18.8437390  14.2861370  42.1209500  18.2861860  18.7077040  32.9680990
  18.2036530  19.6507800  33.1095980  17.9344920  18.5651950  32.0893340
  29.6482600  20.7661870  43.6298850  28.9163720  21.2748680  43.9788950
  29.2506940  19.9491850  43.3287630  26.0859990  17.4416070  42.0351340
  26.0896050  17.0006020  41.1855880  26.9811110  17.7633400  42.1423160
  21.9362370  17.3242560  40.9945550  21.5962420  17.8017790  41.7512600
  21.1739690  16.8707680  40.6346650  26.1480140  18.4428150  35.0258100
  26.2692960  18.4014630  35.9743920  25.7628650  19.3052300  34.8704830
  30.1108510  16.2195550  43.0421790  30.1281250  16.6704200  43.8863640
  29.8624090  15.3201190  43.2555230  25.1601640  20.7529290  34.4241400
  24.5918540  20.3047540  33.7977310  25.8690640  21.1122070  33.8906550
  33.5379260  13.6327730  48.8808170  33.8625030  12.9017390  49.4066150
  33.5735770  13.3141370  47.9789160  20.2370820  24.6541310  48.3008130
  19.8525610  24.0134980  48.8991090  20.5483010  25.3577430  48.8702860
  26.3867960  21.5017850  43.7816750  26.7538090  21.0276420  44.5278090
  26.1973020  22.3759420  44.1225090  19.2508450  16.2461540  39.9110220
  18.9655370  15.8817210  40.7488840  19.1887310  15.5142000  39.2973360
  24.1767330  20.5426490  46.1000960  23.8724400  21.4218470  46.3251320
  25.1313790  20.6026280  46.1358400  22.7049120  24.7487480  36.6967810
  21.9311380  24.2085100  36.5366530  23.4343750  24.2294090  36.3585570
  28.9247040  15.1390800  36.6323590  28.1111650  14.6403970  36.5568900
  28.7308990  15.9789050  36.2159940  28.8455900  23.8161900  48.3763200
  28.7793210  22.8957570  48.1220790  28.2161040  23.9137340  49.0907840
  31.6395430  19.5110450  34.9285750  32.5275050  19.8227680  34.7537090
  31.6100520  18.6382700  34.5366330  22.7486520  24.4167860  40.3346620
  23.2665190  23.6136120  40.2803510  22.2970540  24.3547000  41.1763450
  20.2331060  21.3829230  47.2472320  19.8746000  22.0483080  47.8345660
  19.9385620  20.5512780  47.6184940  23.4344180  21.8413470  50.1311870
  23.1344320  21.9870650  49.2339690  24.2055420  21.2818760  50.0385260
  28.7772630  26.6382470  48.1267000  28.7917170  25.7063430  47.9085910
  28.0697730  26.7242230  48.7656770  34.9883840  23.2789810  47.4735580
  34.2632030  23.8718590  47.2764970  35.5159300  23.2713350  46.6748950
  18.7439110  21.3820490  33.8706920  19.6133960  21.6645290  34.1542840
  18.2529430  22.1956360  33.7555730  25.9073920  22.7693700  37.9915200
  26.3636700  23.5798950  38.2175390  25.5562130  22.4516840  38.8233690
  28.2106530  28.2800040  45.2207500  28.8548750  28.4859420  45.8980920
  28.5735970  27.5188440  44.7678350  21.8085700  13.1131350  38.4637720
  21.6800330  13.1049250  39.4122640  20.9847720  13.4514440  38.1128730
  29.4838610  26.2832390  43.9384950  30.1260840  25.5825550  44.0517120
  30.0087960  27.0630830  43.7581840  31.2576230  27.0827290  47.1421010
  31.5932470  27.6693980  47.8198930  30.3376570  26.9520000  47.3718800
  18.8079630  14.8722470  47.9244420  18.0938150  15.0719390  48.5297030
  19.2274670  14.0962040  48.2959220  19.0952220  28.8602730  48.9110950
  19.2043340  27.9197470  48.7706340  18.4432780  29.1257480  48.2624680
  27.0864810  27.1318620  50.3109070  26.7661680  26.4127860  50.8554760
  26.4123170  27.8073690  50.3845130  20.7285620  23.1993960  35.9988980
  20.1213570  23.9392860  36.0084280  21.2034970  23.2893320  35.1727180
  30.3018410  17.3644780  45.6745870  30.6699230  16.5439990  46.0025440
  29.4416610  17.4246670  46.0901520  33.6680440  16.3201720  36.4833430
  33.0393600  16.4247390  35.7691660  33.1732360  16.5398500  37.2727310
  25.6364470  18.5987670  37.8991310  24.9280620  19.0674010  38.3404920
  25.9208950  17.9409680  38.5336500  27.2620400  20.0184370  45.8983840
  27.7605650  20.4930190  46.5635690  27.4043350  19.0947890  46.1053870
  29.6679900  15.3238330  39.3387100  29.5447680  15.3424460  38.3896610
  30.6164460  15.3717270  39.4585500  23.8399490  16.9072750  35.2742020
  24.6890020  17.3442900  35.2082210  23.4730760  17.2193010  36.1014080
  34.4687260  16.2352330  46.7412230  33.9660860  16.9757730  47.0806040
  35.2843920  16.6236330  46.4249020  32.7609270  21.4785510  40.1873590
  31.8199410  21.4935740  40.3621280  33.0753340  20.6921470  40.6333890
  21.4337670  20.5930180  34.4310440  21.5141260  19.6457690  34.5427840
  22.3257420  20.9237060  34.5371100  21.2410660  29.9271640  50.7230560
  22.0423390  30.2483690  51.1365960  20.7262480  29.5667220  51.4450470
  30.0775290  26.0351510  50.6705970  29.4713450  26.0583110  49.9301720
  29.7729400  25.3034550  51.2073220  31.5075660  29.7631800  49.2815380
  32.4597410  29.6789820  49.2315620  31.3603880  30.4273510  49.9549170
  18.9608470  22.4145100  49.6666610  19.4647490  21.8352380  50.2382840
  18.2215890  22.6985330  50.2042980  26.0146410  23.8216090  49.2002130
  25.2492080  24.3901090  49.1156800  26.1962370  23.5292300  48.3070360
  33.1569760  25.5521420  49.7577150  33.8979230  25.8897180  49.2544610
  32.3942440  25.7213480  49.2046920  20.9931550  20.5574690  50.5616680
  21.0336890  20.2588560  51.4701910  21.8477050  20.9582300  50.4024200
  24.7709940  23.1570240  35.7220190  25.1926360  22.9910110  36.5651580
  24.8960780  22.3470470  35.2275330  22.9337360  19.1366790  48.5291170
  22.4033820  18.6457740  47.9014510  23.6025430  19.5650990  47.9949100
  27.2837580  22.1807850  32.9697290  27.8043240  21.4656870  32.6038440
  27.9305980  22.8193720  33.2697800  31.8315420  23.6036250  48.2932360
  32.2456440  23.7581330  49.1422780  30.8966420  23.7291470  48.4558140
  32.3037590  20.9432410  50.2971510  32.8858360  20.1884730  50.2091990
  32.4799360  21.4739850  49.5202990  23.4209660  16.1029160  48.6088460
  23.3266530  15.4849910  47.8839330  22.8407050  16.8295450  48.3818370
  26.1871100  14.6602400  45.6415850  25.7388400  14.6826660  44.7961400
  25.5536300  14.2621420  46.2386150  26.5930650  23.5556730  46.2628290
  27.0118760  24.3989460  46.0904530  25.6739280  23.6928770  46.0335070
  28.9294550  21.2872910  47.6466130  29.0490760  20.6914050  48.3860970
  29.7888550  21.3242600  47.2267430  31.2682450  21.8410100  46.2228640
  30.7417670  22.3652720  45.6193780  31.6113790  22.4737490  46.8538370
  23.6668840  19.2303470  32.6678350  23.4657900  18.3670830  33.0291690
  23.4960890  19.1436830  31.7299950  24.4438070  29.8609740  47.3786020
  23.9059160  30.5855800  47.0594720  24.6972030  29.3840080  46.5883360
  25.6963320  17.8294260  48.9041950  26.2863010  17.5210110  49.5919770
  24.8783560  17.3574010  49.0601850  30.5156750  17.4460070  49.1374970
  29.8272270  16.7841610  49.0724960  31.2362770  16.9998340  49.5823430
  31.1457150  14.0411700  35.1965230  31.4259440  13.1979600  35.5524650
  30.3722880  14.2734810  35.7103980  22.4651640  16.3304090  32.6556230
  22.7677540  16.3371520  31.7475380  23.2046230  15.9801950  33.1523890
  27.3000280  31.0960950  47.6372670  27.2258980  31.9996090  47.9445040
  26.3979120  30.7772850  47.6094740  25.6836570  15.2738710  33.6412430
  25.3358570  14.5962700  33.0614880  25.8849340  14.8128220  34.4555820
  34.8279960  28.7923130  47.9665230  34.2281950  28.8515690  47.2229150
  34.9573860  27.8528110  48.0962080  19.0242210  21.8026360  40.0376800
  18.3691050  21.5338000  39.3936500  19.8620160  21.6930840  39.5878780
  33.5131600  25.5175110  46.0641390  32.6991440  25.9472270  46.3267180
  33.9205800  26.1293520  45.4510440  31.9732650  16.5967650  34.2595290
  32.3917530  16.4098630  33.4191950  31.6668710  15.7446700  34.5698220
  20.0618140  22.1878930  44.5780140  20.4291180  22.1006330  45.4576160
  19.4928960  21.4245480  44.4787000  34.8622000  20.6563310  47.5910610
  34.6308090  20.4276060  46.6908560  35.1226550  21.5762860  47.5455500
  19.6134140  19.0988020  48.4838560  18.7190190  19.0654780  48.8232270
  20.1531690  19.2974810  49.2489810  33.3010070  15.8819740  50.3690310
  34.1780250  15.8903140  50.7524310  33.3130910  15.1450580  49.7582660
  18.2380290  19.0125290  35.9802130  17.3344370  19.2755490  35.8053790
  18.7220910  19.2836460  35.2002090  34.9263060  19.8189150  44.7797880
  33.9765770  19.7852690  44.8942870  35.1076070  20.7289260  44.5447650
  20.7807500  18.0690830  33.8896510  21.4899200  17.6474050  33.4043790
  20.0647440  18.1366060  33.2579860  20.4281660  14.1230160  32.9299160
  21.1509790  14.6639100  33.2480380  20.7006180  13.8493580  32.0540700
  20.1173850  13.3736350  42.8321780  20.7650040  12.8233730  42.3916940
  20.5375690  13.6279500  43.6537590  34.0126190  13.5677710  46.1891420
  34.6498410  14.1811850  46.5550610  34.1601080  13.6038370  45.2440650
  19.8705850  13.5292020  45.5747100  19.5220670  13.9855840  46.3405280
  19.5393550  12.6349150  45.6569530  21.4770220  26.7011620  49.7400290
  21.4339850  26.3304530  50.6214750  21.6081230  27.6389190  49.8802110
  25.1776250  28.2571210  45.3410010  24.9367610  28.5245770  44.4540530
  26.1178890  28.4276940  45.3960870  27.3830670  14.7203900  49.0966520
  27.3219560  15.3125730  49.8461930  28.3231050  14.6129860  48.9516780
  30.0205230  14.3773960  48.7358810  30.6345640  14.6953250  48.0739890
  30.5654790  13.8922550  49.3554670  20.5426490  13.0568220  48.8497870
  21.0909480  12.8756270  48.0863980  20.6081800  12.2662330  49.3854180
  21.3158250  29.6473870  46.8598070  20.7218570  29.5158570  47.5988110
  21.3082090  28.8112010  46.3940170  30.7613270  12.9406100  45.0628100
  29.8873110  13.2741210  44.8601030  30.6524020  12.4679280  45.8879970
  31.6685250  15.1476970  46.4469820  31.3398610  14.3328730  46.0671550
  32.6167550  15.1046780  46.3235510  28.5088090  13.8575940  44.0021010
  27.7259880  14.3321440  44.2817770  28.2151020  12.9530770  43.8934190
  34.9247730  14.1914280  40.0578920  34.8636130  13.2475500  39.9109940
  35.7039760  14.2994370  40.6032380  19.8528500  14.1623420  36.5234730
  20.6107860  14.2752300  35.9498760  19.3905670  14.9992620  36.4778160
  26.3942310  16.2762690  39.5137040  25.5816820  15.9019580  39.1732920
  26.8983950  15.5207770  39.8158230  30.8967290  12.9405140  40.7520110
  31.4996660  13.5125350  41.2268630  30.1560280  13.5044580  40.5294010
  34.0401890  13.3426700  36.0260390  34.2352520  14.2410150  36.2927820
  33.2531760  13.1113780  36.5193340  22.2253650  14.6887470  35.0636700
  22.7546410  13.9017270  34.9344650  22.8581970  15.3678660  35.2972230
  24.4191490  14.4262610  38.1182090  23.7894230  13.7249920  38.2852220
  23.8796630  15.1866740  37.9015250  27.3583440  31.0401840  50.7892700
  28.2850750  30.8046110  50.8328660  27.3433870  31.8673840  50.3078730
  24.5447050  13.7046590  50.5534580  24.2631320  14.2080190  49.7895400
  24.9266750  12.9068340  50.1876710  31.1462510  13.1200170  51.1315050
  31.0327960  13.4394780  52.0266570  31.9632250  13.5212680  50.8352330
  33.9261000  30.2671700  50.6133740  34.7186320  29.7720930  50.4059700
  34.2194150  30.9461840  51.2209350  30.0520660  21.1392640  21.4949790
  29.9714710  20.2247250  21.2241500  29.6385080  21.6359710  20.7889500
  20.6096480  18.1893360  18.0377210  19.7213180  18.5309330  17.9357090
  20.8937670  17.9893680  17.1458040  18.5729490  20.7899010  23.9216910
  19.1445600  20.0221210  23.9220550  18.5731030  21.0887770  23.0123520
  19.8154360  16.1983370  25.7085840  19.6357200  15.3009120  25.9888600
  19.4134440  16.7455240  26.3832790  28.6552860  18.3999230  23.6098150
  29.0317680  17.5271110  23.4971820  28.5572370  18.7357930  22.7188590
  22.7857870  16.7724860  19.0715590  22.8924620  17.6728590  19.3784350
  21.8750230  16.7242830  18.7810240  32.4376980  15.8949670  20.5426490
  33.2586600  15.4046240  20.5851970  32.4711060  16.4847330  21.2958330
  20.4341030  18.6943870  24.3168180  21.1151140  18.9582240  24.9355580
  20.1189080  17.8544740  24.6506190  24.6265600  19.7411230  23.4040770
  25.1343820  20.2392200  24.0445790  25.1578840  18.9646430  23.2280130
  22.9101700  14.3809790  27.6704190  22.9120140  14.8982180  26.8650090
  22.0806010  13.9039970  27.6474120  32.6738460  17.8350050  23.3154030
  31.9694030  18.1234940  23.8957140  33.0350620  18.6450160  22.9553590
  22.5917030  16.0919750  25.6774640  22.9333840  16.9361800  25.3828510
  21.6532840  16.2403490  25.7939980  18.6655990  25.1785630  16.5433720
  18.2883970  25.6672730  15.8118620  18.9229060  25.8510910  17.1740250
  26.2744920  13.5802020  22.0019230  26.5819900  13.0248910  21.2854730
  25.3445620  13.7146480  21.8192220  28.6625680  21.6450850  18.7379350
  27.7354960  21.5788230  18.9667820  28.8150500  22.5830980  18.6234590
  28.6494760  17.9167850  15.7346510  27.7098430  18.0781810  15.8198970
  28.9678020  18.6353530  15.1882500  32.1349530  19.3855690  26.6580410
  31.7220710  20.2109400  26.9120400  31.4025480  18.8000730  26.4656770
  24.2682320  22.1715590  21.5199080  23.8639320  21.4592840  21.0244980
  24.3545440  21.8268830  22.4087120  30.8687670  22.4457960  16.2487350
  31.3080950  21.6080390  16.1025170  31.5816090  23.0787360  16.3351490
  22.6553670  22.4678160  28.9103460  22.5161440  23.3400960  29.2790860
  21.7735030  22.1250970  28.7651400  34.4504810  13.7000770  14.5628390
  34.1377470  13.7927600  15.4627460  35.2117280  14.2781800  14.5125820
  20.9686950  21.0660570  19.0205730  20.8484550  21.7922660  18.4087000
  20.6587840  20.2963480  18.5433640  18.6072320  24.2375710  24.8274370
  18.6852740  24.3724480  23.8830090  19.2214000  23.5291600  25.0202490
  19.8519950  25.9375900  21.2380550  19.4448030  26.0790490  20.3834150
  20.7432960  25.6536060  21.0351760  18.6631840  25.2789880  27.3668830
  18.8262880  24.8095240  26.5488200  19.1284290  24.7713440  28.0317670
  23.4350610  14.4095640  22.4029400  22.9918760  15.1905180  22.0713920
  23.9935600  14.7325530  23.1100340  29.8174640  19.9974860  31.2360170
  30.1428050  19.1638610  30.8962400  30.6054970  20.5203380  31.3838500
  26.5509430  14.0306340  17.2835230  25.9263610  14.0266210  18.0088540
  26.4639550  13.1637300  16.8871200  25.4726510  14.9542970  24.2619000
  25.7698840  15.8605800  24.1811020  26.0212070  14.4661750  23.6478570
  23.2264830  19.5329210  20.1310650  23.0005750  19.3166380  21.0357270
  22.4457360  19.9657670  19.7856620  30.4562590  19.5392580  18.7301300
  29.8571480  20.2628380  18.5464920  31.0042200  19.4769360  17.9477750
  29.0627460  18.1756120  20.7604580  29.4557030  18.4928320  19.9473270
  29.4244310  17.2968000  20.8749100  20.7974580  16.8428460  28.9504700
  20.4037970  17.6903670  29.1577480  20.1092980  16.2054830  29.1413340
  27.3719630  16.9263430  32.0201440  26.6817950  16.7335630  32.6547530
  28.1151930  17.2098070  32.5525740  18.0991630  14.7656920  22.9834780
  17.8104680  15.3359780  23.6959760  18.8437390  14.2861370  23.3466010
  18.2861860  18.7077040  14.1937500  18.2036530  19.6507800  14.3352490
  17.9344920  18.5651950  13.3149850  26.0859990  17.4416070  23.2607850
  26.0896050  17.0006020  22.4112390  26.9811110  17.7633400  23.3679670
  21.9362370  17.3242560  22.2202060  21.5962420  17.8017790  22.9769110
  21.1739690  16.8707680  21.8603160  26.1480140  18.4428150  16.2514610
  26.2692960  18.4014630  17.2000430  25.7628650  19.3052300  16.0961340
  30.1108510  16.2195550  24.2678300  30.1281250  16.6704200  25.1120150
  29.8624090  15.3201190  24.4811740  25.1601640  20.7529290  15.6497910
  24.5918540  20.3047540  15.0233820  25.8690640  21.1122070  15.1163060
  33.5379260  13.6327730  30.1064680  33.8625030  12.9017390  30.6322660
  33.5735770  13.3141370  29.2045670  19.2508450  16.2461540  21.1366730
  18.9655370  15.8817210  21.9745350  19.1887310  15.5142000  20.5229870
  22.7049120  24.7487480  17.9224320  21.9311380  24.2085100  17.7623040
  23.4343750  24.2294090  17.5842080  28.9247040  15.1390800  17.8580100
  28.1111650  14.6403970  17.7825410  28.7308990  15.9789050  17.4416450
  31.6395430  19.5110450  16.1542260  32.5275050  19.8227680  15.9793600
  31.6100520  18.6382700  15.7622840  22.7486520  24.4167860  21.5603130
  23.2665190  23.6136120  21.5060020  22.2970540  24.3547000  22.4019960
  27.6356020  25.6834140  16.8330430  27.9771720  26.4276370  16.3373750
  26.8068730  25.9965260  17.1955260  20.2331060  21.3829230  28.4728830
  19.8746000  22.0483080  29.0602170  19.9385620  20.5512780  28.8441450
  23.4344180  21.8413470  31.3568380  23.1344320  21.9870650  30.4596200
  24.2055420  21.2818760  31.2641770  33.9109700  20.8222290  15.6222120
  33.8273420  21.2536510  14.7718560  34.6303890  21.2820640  16.0548940
  18.7439110  21.3820490  15.0963430  19.6133960  21.6645290  15.3799350
  18.2529430  22.1956360  14.9812240  25.9073920  22.7693700  19.2171710
  26.3636700  23.5798950  19.4431900  25.5562130  22.4516840  20.0490200
  21.8085700  13.1131350  19.6894230  21.6800330  13.1049250  20.6379150
  20.9847720  13.4514440  19.3385240  19.1110360  30.5947870  15.6625060
  19.4708000  31.1937210  15.0082330  18.9702700  31.1407760  16.4360090
  18.8079630  14.8722470  29.1500930  18.0938150  15.0719390  29.7553540
  19.2274670  14.0962040  29.5215730  25.1278980  27.9779070  16.4798730
  25.1189080  28.7108760  15.8643240  24.2077340  27.7310650  16.5725690
  20.7285620  23.1993960  17.2245490  20.1213570  23.9392860  17.2340790
  21.2034970  23.2893320  16.3983690  30.3018410  17.3644780  26.9002380
  30.6699230  16.5439990  27.2281950  29.4416610  17.4246670  27.3158030
  33.6680440  16.3201720  17.7089940  33.0393600  16.4247390  16.9948170
  33.1732360  16.5398500  18.4983820  28.1138580  28.0407310  15.1423920
  28.2150560  27.8371300  14.2125900  27.2140320  27.7865590  15.3471700
  25.6364470  18.5987670  19.1247820  24.9280620  19.0674010  19.5661430
  25.9208950  17.9409680  19.7593010  29.6679900  15.3238330  20.5643610
  29.5447680  15.3424460  19.6153120  30.6164460  15.3717270  20.6842010
  23.8399490  16.9072750  16.4998530  24.6890020  17.3442900  16.4338720
  23.4730760  17.2193010  17.3270590  34.4687260  16.2352330  27.9668740
  33.9660860  16.9757730  28.3062550  35.2843920  16.6236330  27.6505530
  22.7390910  23.1605110  14.9734060  23.5054180  23.0486470  15.5359490
  22.8165600  22.4643080  14.3210830  21.4337670  20.5930180  15.6566950
  21.5141260  19.6457690  15.7684350  22.3257420  20.9237060  15.7627610
  19.1197860  26.8099140  18.6343000  18.1937640  27.0520280  18.6248410
  19.5854290  27.6373400  18.5127750  25.3454690  29.9155880  14.5827060
  26.1383300  30.2044710  14.1308850  24.8259040  29.4848050  13.9039540
  25.8632090  25.1359290  14.4469410  25.7582730  24.5211640  15.1730790
  25.6956310  24.6125180  13.6632420  29.1034820  24.1979320  15.0511400
  28.5544920  24.6448620  15.6954140  29.7254080  23.6928570  15.5749070
  20.9931550  20.5574690  31.7873190  21.0336890  20.2588560  32.6958420
  21.8477050  20.9582300  31.6280710  24.7709940  23.1570240  16.9476700
  25.1926360  22.9910110  17.7908090  24.8960780  22.3470470  16.4531840
  27.2837580  22.1807850  14.1953800  27.8043240  21.4656870  13.8294950
  27.9305980  22.8193720  14.4954310  23.4209660  16.1029160  29.8344970
  23.3266530  15.4849910  29.1095840  22.8407050  16.8295450  29.6074880
  26.1871100  14.6602400  26.8672360  25.7388400  14.6826660  26.0217910
  25.5536300  14.2621420  27.4642660  23.6668840  19.2303470  13.8934860
  23.4657900  18.3670830  14.2548200  23.4960890  19.1436830  12.9556460
  30.5156750  17.4460070  30.3631480  29.8272270  16.7841610  30.2981470
  31.2362770  16.9998340  30.8079940  31.1457150  14.0411700  16.4221740
  31.4259440  13.1979600  16.7781160  30.3722880  14.2734810  16.9360490
  22.4651640  16.3304090  13.8812740  22.7677540  16.3371520  12.9731890
  23.2046230  15.9801950  14.3780400  25.6836570  15.2738710  14.8668940
  25.3358570  14.5962700  14.2871390  25.8849340  14.8128220  15.6812330
  27.8485610  30.2619460  16.4855540  28.7436400  30.6004430  16.5074300
  27.8803240  29.5398870  15.8579820  21.4881770  25.6346510  14.7142540
  21.9256640  26.1776180  15.3700120  21.9729500  24.8093460  14.7238880
  18.7027570  28.4235540  22.1662800  19.0330580  27.5556600  21.9341440
  19.1318570  28.6294060  22.9967760  19.0242210  21.8026360  21.2633310
  18.3691050  21.5338000  20.6193010  19.8620160  21.6930840  20.8135290
  31.9732650  16.5967650  15.4851800  32.3917530  16.4098630  14.6448460
  31.6668710  15.7446700  15.7954730  20.0618140  22.1878930  25.8036650
  20.4291180  22.1006330  26.6832670  19.4928960  21.4245480  25.7043510
  19.6134140  19.0988020  29.7095070  18.7190190  19.0654780  30.0488780
  20.1531690  19.2974810  30.4746320  33.3010070  15.8819740  31.5946820
  34.1780250  15.8903140  31.9780820  33.3130910  15.1450580  30.9839170
  18.2380290  19.0125290  17.2058640  17.3344370  19.2755490  17.0310300
  18.7220910  19.2836460  16.4258600  20.7807500  18.0690830  15.1153020
  21.4899200  17.6474050  14.6300300  20.0647440  18.1366060  14.4836370
  20.4281660  14.1230160  14.1555670  21.1509790  14.6639100  14.4736890
  20.7006180  13.8493580  13.2797210  20.1173850  13.3736350  24.0578290
  20.7650040  12.8233730  23.6173450  20.5375690  13.6279500  24.8794100
  34.0126190  13.5677710  27.4147930  34.6498410  14.1811850  27.7807120
  34.1601080  13.6038370  26.4697160  36.5550740  15.4591500  14.1971070
  37.4800050  15.3272680  13.9889360  36.5326530  15.5384320  15.1507520
  36.6289230  16.2302160  16.8227780  35.8340730  16.1647280  17.3520690
  36.8332510  17.1652800  16.8113130  19.8705850  13.5292020  26.8003610
  19.5220670  13.9855840  27.5661790  19.5393550  12.6349150  26.8826040
  27.3830670  14.7203900  30.3223030  27.3219560  15.3125730  31.0718440
  28.3231050  14.6129860  30.1773290  30.0205230  14.3773960  29.9615320
  30.6345640  14.6953250  29.2996400  30.5654790  13.8922550  30.5811180
  20.5426490  13.0568220  30.0754380  21.0909480  12.8756270  29.3120490
  20.6081800  12.2662330  30.6110690  30.7613270  12.9406100  26.2884610
  29.8873110  13.2741210  26.0857540  30.6524020  12.4679280  27.1136480
  31.6685250  15.1476970  27.6726330  31.3398610  14.3328730  27.2928060
  32.6167550  15.1046780  27.5492020  28.5088090  13.8575940  25.2277520
  27.7259880  14.3321440  25.5074280  28.2151020  12.9530770  25.1190700
  33.0609160  14.5599040  23.2726610  33.5017250  14.5044140  22.4248210
  32.7916750  15.4757050  23.3436790  34.9247730  14.1914280  21.2835430
  34.8636130  13.2475500  21.1366450  35.7039760  14.2994370  21.8288890
  19.2300480  30.3306640  20.2459380  19.0622520  29.6977320  20.9441270
  18.3634990  30.5366040  19.8953570  19.8528500  14.1623420  17.7491240
  20.6107860  14.2752300  17.1755270  19.3905670  14.9992620  17.7034670
  26.3942310  16.2762690  20.7393550  25.5816820  15.9019580  20.3989430
  26.8983950  15.5207770  21.0414740  30.8967290  12.9405140  21.9776620
  31.4996660  13.5125350  22.4525140  30.1560280  13.5044580  21.7550520
  34.0401890  13.3426700  17.2516900  34.2352520  14.2410150  17.5184330
  33.2531760  13.1113780  17.7449850  20.8363180  29.0239870  17.6909520
  20.3110800  29.4047900  16.9871480  20.7607760  29.6490640  18.4119230
  22.2253650  14.6887470  16.2893210  22.7546410  13.9017270  16.1601160
  22.8581970  15.3678660  16.5228740  24.4191490  14.4262610  19.3438600
  23.7894230  13.7249920  19.5108730  23.8796630  15.1866740  19.1271760
  24.5447050  13.7046590  31.7791090  24.2631320  14.2080190  31.0151910
  24.9266750  12.9068340  31.4133220  23.4356150  30.9722250  16.5658770
  24.1674970  30.6881530  16.0182660  23.6949820  30.7335530  17.4558150
  22.5970940  27.0886980  16.5705100  21.9679820  27.5572080  17.1190930
  22.7118770  26.2436200  17.0051290  31.1462510  13.1200170  32.3571560
  31.0327960  13.4394780  33.2523080  31.9632250  13.5212680  32.0608840
  30.0520660  21.1392640   2.7206300  29.9714710  20.2247250   2.4498010
  29.6385080  21.6359710   2.0146010  28.1838700  22.9171660   4.6015570
  27.4080800  22.4372100   4.8914140  28.8351630  22.2377310   4.4271730
  22.2004530  23.2291470   5.4791330  21.3689410  22.9740180   5.8787840
  22.8085510  23.3002240   6.2149250  32.2046130  27.3231850   3.3814700
  31.7427660  26.5519090   3.7101870  33.0171680  27.3497920   3.8867150
  22.1805790  27.2631560   5.6749350  22.4833830  26.3729300   5.4959570
  22.9249380  27.8201780   5.4471600  18.5729490  20.7899010   5.1473420
  19.1445600  20.0221210   5.1477060  18.5731030  21.0887770   4.2380030
  28.4309440  29.6089860   3.0018690  27.8120880  30.0647360   2.4313130
  29.2861220  29.7641320   2.6008390  27.6247690  25.5928850   4.6085730
  27.5555970  24.6518790   4.4474860  28.3867550  25.6830260   5.1808300
  19.8154360  16.1983370   6.9342350  19.6357200  15.3009120   7.2145110
  19.4134440  16.7455240   7.6089300  28.6552860  18.3999230   4.8354660
  29.0317680  17.5271110   4.7228330  28.5572370  18.7357930   3.9445100
  32.4376980  15.8949670   1.7683000  33.2586600  15.4046240   1.8108480
  32.4711060  16.4847330   2.5214840  20.4341030  18.6943870   5.5424690
  21.1151140  18.9582240   6.1612090  20.1189080  17.8544740   5.8762700
  24.6265600  19.7411230   4.6297280  25.1343820  20.2392200   5.2702300
  25.1578840  18.9646430   4.4536640  36.7276530  17.9116420   8.3326630
  36.0228700  18.2998130   7.8141740  36.9934450  18.6066710   8.9347560
  22.9101700  14.3809790   8.8960700  22.9120140  14.8982180   8.0906600
  22.0806010  13.9039970   8.8730630  24.1604550  24.0204970   7.0734200
  23.8273930  24.6473890   7.7155270  24.3371230  24.5466850   6.2935870
  32.6738460  17.8350050   4.5410540  31.9694030  18.1234940   5.1213650
  33.0350620  18.6450160   4.1810100  22.5917030  16.0919750   6.9031150
  22.9333840  16.9361800   6.6085020  21.6532840  16.2403490   7.0196490
  23.3723650  25.9885770   8.8883380  23.9897650  26.6636850   8.6067830
  22.5116770  26.3973750   8.7970880  34.2901240  27.4525180   6.8038020
  33.6064760  28.1224290   6.7954690  34.8295530  27.6505830   6.0382880
  35.7425380  17.2804840   4.9319750  34.7950290  17.3143820   5.0635180
  36.0675370  18.0943790   5.3169110  26.2744920  13.5802020   3.2275740
  26.5819900  13.0248910   2.5111240  25.3445620  13.7146480   3.0448730
  31.8259980  29.2969310   5.5183200  31.8387140  28.8931600   4.6505460
  31.2735200  30.0716600   5.4144630  31.2245420  24.1999150   6.8465810
  31.6414210  23.9859260   6.0119270  31.9485240  24.4571940   7.4174430
  35.1707520  22.5986370   6.9382050  34.3426150  22.6679460   6.4632180
  35.7658000  23.1840680   6.4697880  32.1349530  19.3855690   7.8836920
  31.7220710  20.2109400   8.1376910  31.4025480  18.8000730   7.6913280
  24.2682320  22.1715590   2.7455590  23.8639320  21.4592840   2.2501490
  24.3545440  21.8268830   3.6343630  24.7364020  25.8583150   4.9094800
  24.4392310  25.2528620   4.2302580  25.6863840  25.8960460   4.7984160
  22.9810940  18.9458800   6.5254630  23.5325530  19.0554140   5.7507880
  23.4954450  19.3196400   7.2409860  32.8249630  29.4315020   8.5717900
  32.3480190  30.2387210   8.3790510  32.1411420  28.7793350   8.7244110
  23.8282450  25.5964840  11.5602600  22.9310980  25.8204810  11.8076000
  23.8535320  25.7199780  10.6114000  22.6553670  22.4678160  10.1359970
  22.5161440  23.3400960  10.5047370  21.7735030  22.1250970   9.9907910
  24.4534020  28.4099860  12.3445120  24.4249450  28.8142810  11.4773550
  24.2898990  27.4810220  12.1816720  18.6072320  24.2375710   6.0530880
  18.6852740  24.3724480   5.1086600  19.2214000  23.5291600   6.2459000
  29.6698830  30.0867810   9.3704110  30.1843500  29.9975820  10.1726540
  28.8267910  30.4327510   9.6632020  35.6606100  18.4372270  11.7659040
  35.0450370  18.9451940  11.2374500  35.3402520  17.5370600  11.7084980
  18.6631840  25.2789880   8.5925340  18.8262880  24.8095240   7.7744710
  19.1284290  24.7713440   9.2574180  23.4350610  14.4095640   3.6285910
  22.9918760  15.1905180   3.2970430  23.9935600  14.7325530   4.3356850
  27.7220420  17.2764160   9.2321230  27.2599790  17.4847180  10.0441170
  27.3198530  16.4623510   8.9291900  32.7224930  18.4973110  10.3617890
  31.8718520  18.1978860  10.6826960  32.5626720  18.7415120   9.4501710
  29.8174640  19.9974860  12.4616680  30.1428050  19.1638610  12.1218910
  30.6054970  20.5203380  12.6095010  25.4726510  14.9542970   5.4875510
  25.7698840  15.8605800   5.4067530  26.0212070  14.4661750   4.8735080
  25.6664040  20.4314790  12.0227430  25.5707640  19.4909520  11.8727830
  26.5096020  20.6529860  11.6275500  20.7974580  16.8428460  10.1761210
  20.4037970  17.6903670  10.3833990  20.1092980  16.2054830  10.3669850
  27.3719630  16.9263430  13.2457950  26.6817950  16.7335630  13.8804040
  28.1151930  17.2098070  13.7782250  18.0991630  14.7656920   4.2091290
  17.8104680  15.3359780   4.9216270  18.8437390  14.2861370   4.5722520
  29.6482600  20.7661870   6.0811870  28.9163720  21.2748680   6.4301970
  29.2506940  19.9491850   5.7800650  26.0859990  17.4416070   4.4864360
  26.0896050  17.0006020   3.6368900  26.9811110  17.7633400   4.5936180
  21.9362370  17.3242560   3.4458570  21.5962420  17.8017790   4.2025620
  21.1739690  16.8707680   3.0859670  30.1108510  16.2195550   5.4934810
  30.1281250  16.6704200   6.3376660  29.8624090  15.3201190   5.7068250
  33.5379260  13.6327730  11.3321190  33.8625030  12.9017390  11.8579170
  33.5735770  13.3141370  10.4302180  20.2370820  24.6541310  10.7521150
  19.8525610  24.0134980  11.3504110  20.5483010  25.3577430  11.3215880
  26.3867960  21.5017850   6.2329770  26.7538090  21.0276420   6.9791110
  26.1973020  22.3759420   6.5738110  19.2508450  16.2461540   2.3623240
  18.9655370  15.8817210   3.2001860  19.1887310  15.5142000   1.7486380
  24.1767330  20.5426490   8.5513980  23.8724400  21.4218470   8.7764340
  25.1313790  20.6026280   8.5871420  33.4637100  23.7452840   4.9407220
  34.1836220  24.2408130   4.5503330  33.2618920  23.0670730   4.2961090
  28.8455900  23.8161900  10.8276220  28.7793210  22.8957570  10.5733810
  28.2161040  23.9137340  11.5420860  22.7486520  24.4167860   2.7859640
  23.2665190  23.6136120   2.7316530  22.2970540  24.3547000   3.6276470
  20.2331060  21.3829230   9.6985340  19.8746000  22.0483080  10.2858680
  19.9385620  20.5512780  10.0697960  23.4344180  21.8413470  12.5824890
  23.1344320  21.9870650  11.6852710  24.2055420  21.2818760  12.4898280
  28.7772630  26.6382470  10.5780020  28.7917170  25.7063430  10.3598930
  28.0697730  26.7242230  11.2169790  34.9883840  23.2789810   9.9248600
  34.2632030  23.8718590   9.7277990  35.5159300  23.2713350   9.1261970
  30.5183430  25.0049980   3.4232450  30.8707250  24.4078110   2.7633820
  29.6345760  24.6794210   3.5940700  28.2106530  28.2800040   7.6720520
  28.8548750  28.4859420   8.3493940  28.5735970  27.5188440   7.2191370
  29.4838610  26.2832390   6.3897970  30.1260840  25.5825550   6.5030140
  30.0087960  27.0630830   6.2094860  31.2576230  27.0827290   9.5934030
  31.5932470  27.6693980  10.2711950  30.3376570  26.9520000   9.8231820
  18.8079630  14.8722470  10.3757440  18.0938150  15.0719390  10.9810050
  19.2274670  14.0962040  10.7472240  19.0952220  28.8602730  11.3623970
  19.2043340  27.9197470  11.2219360  18.4432780  29.1257480  10.7137700
  27.0864810  27.1318620  12.7622090  26.7661680  26.4127860  13.3067780
  26.4123170  27.8073690  12.8358150  30.3018410  17.3644780   8.1258890
  30.6699230  16.5439990   8.4538460  29.4416610  17.4246670   8.5414540
  27.2620400  20.0184370   8.3496860  27.7605650  20.4930190   9.0148710
  27.4043350  19.0947890   8.5566890  34.4687260  16.2352330   9.1925250
  33.9660860  16.9757730   9.5319060  35.2843920  16.6236330   8.8762040
  32.7609270  21.4785510   2.6386610  31.8199410  21.4935740   2.8134300
  33.0753340  20.6921470   3.0846910  34.7634850  28.6494360   4.3140870
  34.8882270  29.4725530   4.7864680  35.6300410  28.4385090   3.9665020
  22.2352380  30.7425570   3.9858000  22.9714860  30.1941030   4.2566570
  22.6193300  31.6081580   3.8463990  21.2410660  29.9271640  13.1743580
  22.0423390  30.2483690  13.5878980  20.7262480  29.5667220  13.8963490
  30.0775290  26.0351510  13.1218990  29.4713450  26.0583110  12.3814740
  29.7729400  25.3034550  13.6586240  31.5075660  29.7631800  11.7328400
  32.4597410  29.6789820  11.6828640  31.3603880  30.4273510  12.4062190
  18.9608470  22.4145100  12.1179630  19.4647490  21.8352380  12.6895860
  18.2215890  22.6985330  12.6556000  26.0146410  23.8216090  11.6515150
  25.2492080  24.3901090  11.5669820  26.1962370  23.5292300  10.7583380
  20.9931550  20.5574690  13.0129700  21.0336890  20.2588560  13.9214930
  21.8477050  20.9582300  12.8537220  22.9337360  19.1366790  10.9804190
  22.4033820  18.6457740  10.3527530  23.6025430  19.5650990  10.4462120
  31.8315420  23.6036250  10.7445380  32.2456440  23.7581330  11.5935800
  30.8966420  23.7291470  10.9071160  32.3037590  20.9432410  12.7484530
  32.8858360  20.1884730  12.6605010  32.4799360  21.4739850  11.9716010
  23.4209660  16.1029160  11.0601480  23.3266530  15.4849910  10.3352350
  22.8407050  16.8295450  10.8331390  26.1871100  14.6602400   8.0928870
  25.7388400  14.6826660   7.2474420  25.5536300  14.2621420   8.6899170
  26.5930650  23.5556730   8.7141310  27.0118760  24.3989460   8.5417550
  25.6739280  23.6928770   8.4848090  28.9294550  21.2872910  10.0979150
  29.0490760  20.6914050  10.8373990  29.7888550  21.3242600   9.6780450
  31.2682450  21.8410100   8.6741660  30.7417670  22.3652720   8.0706800
  31.6113790  22.4737490   9.3051390  24.4438070  29.8609740   9.8299040
  23.9059160  30.5855800   9.5107740  24.6972030  29.3840080   9.0396380
  25.6963320  17.8294260  11.3554970  26.2863010  17.5210110  12.0432790
  24.8783560  17.3574010  11.5114870  30.5156750  17.4460070  11.5887990
  29.8272270  16.7841610  11.5237980  31.2362770  16.9998340  12.0336450
  27.3000280  31.0960950  10.0885690  27.2258980  31.9996090  10.3958060
  26.3979120  30.7772850  10.0607760  18.7027570  28.4235540   3.3919310
  19.0330580  27.5556600   3.1597950  19.1318570  28.6294060   4.2224270
  19.1917780  29.2906130   6.1300940  18.7548770  29.4706930   6.9625090
  19.7595460  30.0480750   5.9882660  19.0242210  21.8026360   2.4889820
  18.3691050  21.5338000   1.8449520  19.8620160  21.6930840   2.0391800
  36.5297840  24.1338530   3.1024090  36.9006670  23.3505850   2.6960060
  37.1699770  24.8227630   2.9241390  33.5131600  25.5175110   8.5154410
  32.6991440  25.9472270   8.7780200  33.9205800  26.1293520   7.9023460
  20.0618140  22.1878930   7.0293160  20.4291180  22.1006330   7.9089180
  19.4928960  21.4245480   6.9300020  34.8622000  20.6563310  10.0423630
  34.6308090  20.4276060   9.1421580  35.1226550  21.5762860   9.9968520
  19.6134140  19.0988020  10.9351580  18.7190190  19.0654780  11.2745290
  20.1531690  19.2974810  11.7002830  33.3010070  15.8819740  12.8203330
  34.1780250  15.8903140  13.2037330  33.3130910  15.1450580  12.2095680
  34.7473340  19.7349280   3.7091350  35.2710820  19.2411930   3.0781520
  35.3332760  19.8699640   4.4538920  34.9263060  19.8189150   7.2310900
  33.9765770  19.7852690   7.3455890  35.1076070  20.7289260   6.9960670
  20.1173850  13.3736350   5.2834800  20.7650040  12.8233730   4.8429960
  20.5375690  13.6279500   6.1050610  35.6660470  17.6283580   2.1821440
  35.5559750  17.4739620   3.1203710  36.4268060  17.1004520   1.9396850
  34.0126190  13.5677710   8.6404440  34.6498410  14.1811850   9.0063630
  34.1601080  13.6038370   7.6953670  19.8705850  13.5292020   8.0260120
  19.5220670  13.9855840   8.7918300  19.5393550  12.6349150   8.1082550
  21.4770220  26.7011620  12.1913310  21.4339850  26.3304530  13.0727770
  21.6081230  27.6389190  12.3315130  25.1776250  28.2571210   7.7923030
  24.9367610  28.5245770   6.9053550  26.1178890  28.4276940   7.8473890
  27.3830670  14.7203900  11.5479540  27.3219560  15.3125730  12.2974950
  28.3231050  14.6129860  11.4029800  30.0205230  14.3773960  11.1871830
  30.6345640  14.6953250  10.5252910  30.5654790  13.8922550  11.8067690
  36.4380410  30.2765590   8.5933670  35.9438690  30.6734460   7.8760800
  35.8293700  29.6514800   8.9870950  20.5426490  13.0568220  11.3010890
  21.0909480  12.8756270  10.5377000  20.6081800  12.2662330  11.8367200
  21.3158250  29.6473870   9.3111090  20.7218570  29.5158570  10.0501130
  21.3082090  28.8112010   8.8453190  30.7613270  12.9406100   7.5141120
  29.8873110  13.2741210   7.3114050  30.6524020  12.4679280   8.3392990
  31.6685250  15.1476970   8.8982840  31.3398610  14.3328730   8.5184570
  32.6167550  15.1046780   8.7748530  34.1219860  30.9189010   5.8720410
  33.6622830  31.6704820   5.4978430  33.4932320  30.1995480   5.8135210
  20.9470480  27.0132250   8.2619130  20.2204540  26.3937540   8.1945080
  21.0079630  27.4072860   7.3917210  24.5515580  29.2277250   5.0468540
  25.0680600  28.6164610   4.5216800  25.2012960  29.7306030   5.5379550
  27.2911080  30.1185740   5.8737520  27.5788890  29.8640040   4.9970530
  27.8034300  29.5663100   6.4643090  28.5088090  13.8575940   6.4534030
  27.7259880  14.3321440   6.7330790  28.2151020  12.9530770   6.3447210
  33.0609160  14.5599040   4.4983120  33.5017250  14.5044140   3.6504720
  32.7916750  15.4757050   4.5693300  34.9247730  14.1914280   2.5091940
  34.8636130  13.2475500   2.3622960  35.7039760  14.2994370   3.0545400
  30.8967290  12.9405140   3.2033130  31.4996660  13.5125350   3.6781650
  30.1560280  13.5044580   2.9807030  27.3583440  31.0401840  13.2405720
  28.2850750  30.8046110  13.2841680  27.3433870  31.8673840  12.7591750
  24.5447050  13.7046590  13.0047600  24.2631320  14.2080190  12.2408420
  24.9266750  12.9068340  12.6389730  31.1462510  13.1200170  13.5828070
  31.0327960  13.4394780  14.4779590  31.9632250  13.5212680  13.2865350
  30.0520660   2.3649150  59.0436770  29.9714710   1.4503760  58.7728480
  29.6385080   2.8616220  58.3376480  28.1838700   4.1428170  60.9246040
  27.4080800   3.6628610  61.2144610  28.8351630   3.4633820  60.7502200
  22.2004530   4.4547980  61.8021800  21.3689410   4.1996690  62.2018310
  22.8085510   4.5258750  62.5379720  32.2046130   8.5488360  59.7045170
  31.7427660   7.7775600  60.0332340  33.0171680   8.5754430  60.2097620
  22.1805790   8.4888070  61.9979820  22.4833830   7.5985810  61.8190040
  22.9249380   9.0458290  61.7702070  28.4309440  10.8346370  59.3249160
  27.8120880  11.2903870  58.7543600  29.2861220  10.9897830  58.9238860
  27.6247690   6.8185360  60.9316200  27.5555970   5.8775300  60.7705330
  28.3867550   6.9086770  61.5038770  29.2972790   5.7185610  56.7181070
  28.6790060   6.1835060  56.1543790  29.8096040   6.4113090  57.1350580
  18.6655990   6.4042140  54.0920700  18.2883970   6.8929240  53.3605600
  18.9229060   7.0767420  54.7227230  34.2901240   8.6781690  63.1268490
  33.6064760   9.3480800  63.1185160  34.8295530   8.8762340  62.3613350
  31.8259980  10.5225820  61.8413670  31.8387140  10.1188110  60.9735930
  31.2735200  11.2973110  61.7375100  33.1205400   7.2442040  56.9303840
  33.0101730   6.3016370  57.0553260  33.1173650   7.6057680  57.8166600
  28.6625680   2.8707360  56.2866330  27.7354960   2.8044740  56.5154800
  28.8150500   3.8087490  56.1721570  35.1707520   3.8242880  63.2612520
  34.3426150   3.8935970  62.7862650  35.7658000   4.4097190  62.7928350
  32.6922970   4.4327660  56.7901580  32.0735390   4.0947210  56.1427880
  32.6747420   3.7887420  57.4980770  24.2682320   3.3972100  59.0686060
  23.8639320   2.6849350  58.5731960  24.3545440   3.0525340  59.9574100
  24.7364020   7.0839660  61.2325270  24.4392310   6.4785130  60.5533050
  25.6863840   7.1216970  61.1214630  30.8687670   3.6714470  53.7974330
  31.3080950   2.8336900  53.6512150  31.5816090   4.3043870  53.8838470
  28.9783050   8.6110540  57.7655570  29.4178960   9.3534870  57.3510960
  28.9169940   8.8537110  58.6894530  20.9686950   2.2917080  56.5692710
  20.8484550   3.0179170  55.9573980  20.6587840   1.5219990  56.0920620
  18.6072320   5.4632220  62.3761350  18.6852740   5.5980990  61.4317070
  19.2214000   4.7548110  62.5689470  19.8519950   7.1632410  58.7867530
  19.4448030   7.3047000  57.9321130  20.7432960   6.8792570  58.5838740
  31.6453230  11.5979660  55.1218580  31.4854370  11.3082600  56.0200410
  31.4799940  10.8219790  54.5863810  24.1241610  11.3778190  56.8990200
  23.9484090  10.4613730  56.6858000  23.2697350  11.7365480  57.1388000
  31.3479360   9.1067220  53.6816580  30.6544520   9.1044510  53.0218860
  32.0902220   8.6826540  53.2510750  30.9129290  10.7329930  57.7565070
  31.3686240   9.9519310  58.0703690  31.2521810  11.4436750  58.3006250
  25.1601640   1.9785800  53.1984890  24.5918540   1.5304050  52.5720800
  25.8690640   2.3378580  52.6650040  22.7049120   5.9743990  55.4711300
  21.9311380   5.4341610  55.3110020  23.4343750   5.4550600  55.1329060
  33.4637100   4.9709350  61.2637690  34.1836220   5.4664640  60.8733800
  33.2618920   4.2927240  60.6191560  22.7486520   5.6424370  59.1090110
  23.2665190   4.8392630  59.0547000  22.2970540   5.5803510  59.9506940
  27.6356020   6.9090650  54.3817410  27.9771720   7.6532880  53.8860730
  26.8068730   7.2221770  54.7442240  33.9109700   2.0478800  53.1709100
  33.8273420   2.4793020  52.3205540  34.6303890   2.5077150  53.6035920
  34.9396950   8.9021060  55.8991230  34.2973110   8.2476680  56.1734950
  34.5527610   9.3076150  55.1231900  30.5183430   6.2306490  59.7462920
  30.8707250   5.6334620  59.0864290  29.6345760   5.9050720  59.9171170
  26.6046710   6.9904180  57.1533330  27.2917840   7.5373390  57.5340920
  25.8179130   7.5344910  57.1882940  18.7439110   2.6077000  52.6450410
  19.6133960   2.8901800  52.9286330  18.2529430   3.4212870  52.5299220
  25.9073920   3.9950210  56.7658690  26.3636700   4.8055460  56.9918880
  25.5562130   3.6773350  57.5977180  29.4838610   7.5088900  62.7128440
  30.1260840   6.8082060  62.8260610  30.0087960   8.2887340  62.5325330
  33.3294330   7.7937520  52.4367580  33.1031910   7.0767960  53.0292220
  32.9390530   7.5449960  51.5989330  19.1110360  11.8204380  53.2112040
  19.4708000  12.4193720  52.5569310  18.9702700  12.3664270  53.9847070
  32.9110580   5.7109460  54.0981740  32.6232280   6.1722150  54.8859620
  33.7062750   5.2507230  54.3665960  25.1278980   9.2035580  54.0285710
  25.1189080   9.9365270  53.4130220  24.2077340   8.9567160  54.1212670
  20.7285620   4.4250470  54.7732470  20.1213570   5.1649370  54.7827770
  21.2034970   4.5149830  53.9470670  28.1138580   9.2663820  52.6910900
  28.2150560   9.0627810  51.7612880  27.2140320   9.0122100  52.8958680
  26.7556690  11.7850140  57.3858570  27.0098190  11.7471530  56.4637940
  25.8069170  11.6583470  57.3786820  32.7609270   2.7042020  58.9617080
  31.8199410   2.7192250  59.1364770  33.0753340   1.9177980  59.4077380
  22.7390910   4.3861620  52.5221040  23.5054180   4.2742980  53.0846470
  22.8165600   3.6899590  51.8697810  34.7634850   9.8750870  60.6371340
  34.8882270  10.6982040  61.1095150  35.6300410   9.6641600  60.2895490
  22.2352380  11.9682080  60.3088470  22.9714860  11.4197540  60.5797040
  22.6193300  12.8338090  60.1694460  19.1197860   8.0355650  56.1829980
  18.1937640   8.2776790  56.1735390  19.5854290   8.8629910  56.0614730
  25.3454690  11.1412390  52.1314040  26.1383300  11.4301220  51.6795830
  24.8259040  10.7104560  51.4526520  34.3984860  10.3682520  53.5550780
  34.1126370   9.9547660  52.7404960  34.2004410  11.2970230  53.4351300
  25.8632090   6.3615800  51.9956390  25.7582730   5.7468150  52.7217770
  25.6956310   5.8381690  51.2119400  29.1034820   5.4235830  52.5998380
  28.5544920   5.8705130  53.2441120  29.7254080   4.9185080  53.1236050
  24.7709940   4.3826750  54.4963680  25.1926360   4.2166620  55.3395070
  24.8960780   3.5726980  54.0018820  27.2837580   3.4064360  51.7440780
  27.8043240   2.6913380  51.3781930  27.9305980   4.0450230  52.0441290
  27.8485610  11.4875970  54.0342520  28.7436400  11.8260940  54.0561280
  27.8803240  10.7655380  53.4066800  21.4881770   6.8603020  52.2629520
  21.9256640   7.4032690  52.9187100  21.9729500   6.0349970  52.2725860
  18.7027570   9.6492050  59.7149780  19.0330580   8.7813110  59.4828420
  19.1318570   9.8550570  60.5454740  23.2989490   7.9801060  57.3751750
  22.9985030   7.8566030  58.2755660  23.1926980   7.1209650  56.9667480
  36.0681410   7.7597460  52.0778430  35.2374370   7.8274110  52.5485660
  36.2453240   8.6501580  51.7745290  35.5237870   4.5044940  54.5812630
  36.2856780   5.0741590  54.6872320  35.5392240   3.9372140  55.3520940
  19.0242210   3.0282870  58.8120290  18.3691050   2.7594510  58.1679990
  19.8620160   2.9187350  58.3622270  36.5297840   5.3595040  59.4254560
  36.9006670   4.5762360  59.0190530  37.1699770   6.0484140  59.2471860
  35.5757040   4.7979310  51.7385150  35.8505880   5.7058190  51.6104370
  35.3867780   4.7341840  52.6747140  35.4722380   2.7348300  56.7314580
  35.0965980   1.9676230  56.2995870  34.7425500   3.1171000  57.2189510
  33.5707650  11.4950220  58.3653150  34.1666720  11.1734790  57.6887570
  33.8285800  11.0222040  59.1566420  34.1219860  12.1445520  62.1950880
  33.6622830  12.8961330  61.8208900  33.4932320  11.4251990  62.1365680
  24.5515580  10.4533760  61.3699010  25.0680600   9.8421120  60.8447270
  25.2012960  10.9562540  61.8610020  27.2911080  11.3442250  62.1967990
  27.5788890  11.0896550  61.3201000  27.8034300  10.7919610  62.7873560
  19.2300480  11.5563150  57.7946360  19.0622520  10.9233830  58.4928250
  18.3634990  11.7622550  57.4440550  20.8363180  10.2496380  55.2396500
  20.3110800  10.6304410  54.5358460  20.7607760  10.8747150  55.9606210
  35.5928500  11.8083920  56.5610440  35.7680690  11.1221660  55.9171360
  34.8950070  12.3330970  56.1687110  23.4356150  12.1978760  54.1145750
  24.1674970  11.9138040  53.5669640  23.6949820  11.9592040  55.0045130
  22.5970940   8.3143490  54.1192080  21.9679820   8.7828590  54.6677910
  22.7118770   7.4692710  54.5538270  30.0520660   2.3649150  40.2693280
  29.9714710   1.4503760  39.9984990  29.6385080   2.8616220  39.5632990
  28.1838700   4.1428170  42.1502550  27.4080800   3.6628610  42.4401120
  28.8351630   3.4633820  41.9758710  22.2004530   4.4547980  43.0278310
  21.3689410   4.1996690  43.4274820  22.8085510   4.5258750  43.7636230
  32.2046130   8.5488360  40.9301680  31.7427660   7.7775600  41.2588850
  33.0171680   8.5754430  41.4354130  22.1805790   8.4888070  43.2236330
  22.4833830   7.5985810  43.0446550  22.9249380   9.0458290  42.9958580
  28.4309440  10.8346370  40.5505670  27.8120880  11.2903870  39.9800110
  29.2861220  10.9897830  40.1495370  27.6247690   6.8185360  42.1572710
  27.5555970   5.8775300  41.9961840  28.3867550   6.9086770  42.7295280
  29.2972790   5.7185610  37.9437580  28.6790060   6.1835060  37.3800300
  29.8096040   6.4113090  38.3607090  24.1604550   5.2461480  44.6221180
  23.8273930   5.8730400  45.2642250  24.3371230   5.7723360  43.8422850
  23.3723650   7.2142280  46.4370360  23.9897650   7.8893360  46.1554810
  22.5116770   7.6230260  46.3457860  18.6655990   6.4042140  35.3177210
  18.2883970   6.8929240  34.5862110  18.9229060   7.0767420  35.9483740
  34.2901240   8.6781690  44.3525000  33.6064760   9.3480800  44.3441670
  34.8295530   8.8762340  43.5869860  31.8259980  10.5225820  43.0670180
  31.8387140  10.1188110  42.1992440  31.2735200  11.2973110  42.9631610
  33.1205400   7.2442040  38.1560350  33.0101730   6.3016370  38.2809770
  33.1173650   7.6057680  39.0423110  31.2245420   5.4255660  44.3952790
  31.6414210   5.2115770  43.5606250  31.9485240   5.6828450  44.9661410
  28.6625680   2.8707360  37.5122840  27.7354960   2.8044740  37.7411310
  28.8150500   3.8087490  37.3978080  35.1707520   3.8242880  44.4869030
  34.3426150   3.8935970  44.0119160  35.7658000   4.4097190  44.0184860
  32.6922970   4.4327660  38.0158090  32.0735390   4.0947210  37.3684390
  32.6747420   3.7887420  38.7237280  24.2682320   3.3972100  40.2942570
  23.8639320   2.6849350  39.7988470  24.3545440   3.0525340  41.1830610
  24.7364020   7.0839660  42.4581780  24.4392310   6.4785130  41.7789560
  25.6863840   7.1216970  42.3471140  32.8249630  10.6571530  46.1204880
  32.3480190  11.4643720  45.9277490  32.1411420  10.0049860  46.2731090
  23.8282450   6.8221350  49.1089580  22.9310980   7.0461320  49.3562980
  23.8535320   6.9456290  48.1600980  30.8687670   3.6714470  35.0230840
  31.3080950   2.8336900  34.8768660  31.5816090   4.3043870  35.1094980
  22.6553670   3.6934670  47.6846950  22.5161440   4.5657470  48.0534350
  21.7735030   3.3507480  47.5394890  28.9783050   8.6110540  38.9912080
  29.4178960   9.3534870  38.5767470  28.9169940   8.8537110  39.9151040
  24.4534020   9.6356370  49.8932100  24.4249450  10.0399320  49.0260530
  24.2898990   8.7066730  49.7303700  20.9686950   2.2917080  37.7949220
  20.8484550   3.0179170  37.1830490  20.6587840   1.5219990  37.3177130
  36.4048840  10.4183470  51.1896270  36.8808560  10.8966360  51.8685350
  37.0256000  10.3500960  50.4641770  18.6072320   5.4632220  43.6017860
  18.6852740   5.5980990  42.6573580  19.2214000   4.7548110  43.7945980
  19.8519950   7.1632410  40.0124040  19.4448030   7.3047000  39.1577640
  20.7432960   6.8792570  39.8095250  35.8082090   7.6096320  48.3496280
  35.9345150   7.3708200  47.4313460  35.8503470   6.7780860  48.8218360
  29.6698830  11.3124320  46.9191090  30.1843500  11.2232330  47.7213520
  28.8267910  11.6584020  47.2119000  31.6453230  11.5979660  36.3475090
  31.4854370  11.3082600  37.2456920  31.4799940  10.8219790  35.8120320
  24.1241610  11.3778190  38.1246710  23.9484090  10.4613730  37.9114510
  23.2697350  11.7365480  38.3644510  31.3479360   9.1067220  34.9073090
  30.6544520   9.1044510  34.2475370  32.0902220   8.6826540  34.4767260
  30.9129290  10.7329930  38.9821580  31.3686240   9.9519310  39.2960200
  31.2521810  11.4436750  39.5262760  18.6631840   6.5046390  46.1412320
  18.8262880   6.0351750  45.3231690  19.1284290   5.9969950  46.8061160
  25.1601640   1.9785800  34.4241400  24.5918540   1.5304050  33.7977310
  25.8690640   2.3378580  33.8906550  20.2370820   5.8797820  48.3008130
  19.8525610   5.2391490  48.8991090  20.5483010   6.5833940  48.8702860
  26.3867960   2.7274360  43.7816750  26.7538090   2.2532930  44.5278090
  26.1973020   3.6015930  44.1225090  24.1767330   1.7683000  46.1000960
  23.8724400   2.6474980  46.3251320  25.1313790   1.8282790  46.1358400
  22.7049120   5.9743990  36.6967810  21.9311380   5.4341610  36.5366530
  23.4343750   5.4550600  36.3585570  33.4637100   4.9709350  42.4894200
  34.1836220   5.4664640  42.0990310  33.2618920   4.2927240  41.8448070
  28.8455900   5.0418410  48.3763200  28.7793210   4.1214080  48.1220790
  28.2161040   5.1393850  49.0907840  22.7486520   5.6424370  40.3346620
  23.2665190   4.8392630  40.2803510  22.2970540   5.5803510  41.1763450
  27.6356020   6.9090650  35.6073920  27.9771720   7.6532880  35.1117240
  26.8068730   7.2221770  35.9698750  20.2331060   2.6085740  47.2472320
  19.8746000   3.2739590  47.8345660  19.9385620   1.7769290  47.6184940
  23.4344180   3.0669980  50.1311870  23.1344320   3.2127160  49.2339690
  24.2055420   2.5075270  50.0385260  28.7772630   7.8638980  48.1267000
  28.7917170   6.9319940  47.9085910  28.0697730   7.9498740  48.7656770
  33.9109700   2.0478800  34.3965610  33.8273420   2.4793020  33.5462050
  34.6303890   2.5077150  34.8292430  34.9883840   4.5046320  47.4735580
  34.2632030   5.0975100  47.2764970  35.5159300   4.4969860  46.6748950
  34.9396950   8.9021060  37.1247740  34.2973110   8.2476680  37.3991460
  34.5527610   9.3076150  36.3488410  30.5183430   6.2306490  40.9719430
  30.8707250   5.6334620  40.3120800  29.6345760   5.9050720  41.1427680
  26.6046710   6.9904180  38.3789840  27.2917840   7.5373390  38.7597430
  25.8179130   7.5344910  38.4139450  18.7439110   2.6077000  33.8706920
  19.6133960   2.8901800  34.1542840  18.2529430   3.4212870  33.7555730
  25.9073920   3.9950210  37.9915200  26.3636700   4.8055460  38.2175390
  25.5562130   3.6773350  38.8233690  28.2106530   9.5056550  45.2207500
  28.8548750   9.7115930  45.8980920  28.5735970   8.7444950  44.7678350
  29.4838610   7.5088900  43.9384950  30.1260840   6.8082060  44.0517120
  30.0087960   8.2887340  43.7581840  33.3294330   7.7937520  33.6624090
  33.1031910   7.0767960  34.2548730  32.9390530   7.5449960  32.8245840
  31.2576230   8.3083800  47.1421010  31.5932470   8.8950490  47.8198930
  30.3376570   8.1776510  47.3718800  19.1110360  11.8204380  34.4368550
  19.4708000  12.4193720  33.7825820  18.9702700  12.3664270  35.2103580
  32.9110580   5.7109460  35.3238250  32.6232280   6.1722150  36.1116130
  33.7062750   5.2507230  35.5922470  19.0952220  10.0859240  48.9110950
  19.2043340   9.1453980  48.7706340  18.4432780  10.3513990  48.2624680
  27.0864810   8.3575130  50.3109070  26.7661680   7.6384370  50.8554760
  26.4123170   9.0330200  50.3845130  25.1278980   9.2035580  35.2542220
  25.1189080   9.9365270  34.6386730  24.2077340   8.9567160  35.3469180
  20.7285620   4.4250470  35.9988980  20.1213570   5.1649370  36.0084280
  21.2034970   4.5149830  35.1727180  28.1138580   9.2663820  33.9167410
  28.2150560   9.0627810  32.9869390  27.2140320   9.0122100  34.1215190
  26.7556690  11.7850140  38.6115080  27.0098190  11.7471530  37.6894450
  25.8069170  11.6583470  38.6043330  32.7609270   2.7042020  40.1873590
  31.8199410   2.7192250  40.3621280  33.0753340   1.9177980  40.6333890
  22.7390910   4.3861620  33.7477550  23.5054180   4.2742980  34.3102980
  22.8165600   3.6899590  33.0954320  34.7634850   9.8750870  41.8627850
  34.8882270  10.6982040  42.3351660  35.6300410   9.6641600  41.5152000
  22.2352380  11.9682080  41.5344980  22.9714860  11.4197540  41.8053550
  22.6193300  12.8338090  41.3950970  19.1197860   8.0355650  37.4086490
  18.1937640   8.2776790  37.3991900  19.5854290   8.8629910  37.2871240
  21.2410660  11.1528150  50.7230560  22.0423390  11.4740200  51.1365960
  20.7262480  10.7923730  51.4450470  25.3454690  11.1412390  33.3570550
  26.1383300  11.4301220  32.9052340  24.8259040  10.7104560  32.6783030
  30.0775290   7.2608020  50.6705970  29.4713450   7.2839620  49.9301720
  29.7729400   6.5291060  51.2073220  31.5075660  10.9888310  49.2815380
  32.4597410  10.9046330  49.2315620  31.3603880  11.6530020  49.9549170
  34.3984860  10.3682520  34.7807290  34.1126370   9.9547660  33.9661470
  34.2004410  11.2970230  34.6607810  18.9608470   3.6401610  49.6666610
  19.4647490   3.0608890  50.2382840  18.2215890   3.9241840  50.2042980
  25.8632090   6.3615800  33.2212900  25.7582730   5.7468150  33.9474280
  25.6956310   5.8381690  32.4375910  26.0146410   5.0472600  49.2002130
  25.2492080   5.6157600  49.1156800  26.1962370   4.7548810  48.3070360
  29.1034820   5.4235830  33.8254890  28.5544920   5.8705130  34.4697630
  29.7254080   4.9185080  34.3492560  33.1569760   6.7777930  49.7577150
  33.8979230   7.1153690  49.2544610  32.3942440   6.9469990  49.2046920
  20.9931550   1.7831200  50.5616680  21.0336890   1.4845070  51.4701910
  21.8477050   2.1838810  50.4024200  24.7709940   4.3826750  35.7220190
  25.1926360   4.2166620  36.5651580  24.8960780   3.5726980  35.2275330
  27.2837580   3.4064360  32.9697290  27.8043240   2.6913380  32.6038440
  27.9305980   4.0450230  33.2697800  31.8315420   4.8292760  48.2932360
  32.2456440   4.9837840  49.1422780  30.8966420   4.9547980  48.4558140
  32.3037590   2.1688920  50.2971510  32.8858360   1.4141240  50.2091990
  32.4799360   2.6996360  49.5202990  26.5930650   4.7813240  46.2628290
  27.0118760   5.6245970  46.0904530  25.6739280   4.9185280  46.0335070
  28.9294550   2.5129420  47.6466130  29.0490760   1.9170560  48.3860970
  29.7888550   2.5499110  47.2267430  31.2682450   3.0666610  46.2228640
  30.7417670   3.5909230  45.6193780  31.6113790   3.6994000  46.8538370
  24.4438070  11.0866250  47.3786020  23.9059160  11.8112310  47.0594720
  24.6972030  10.6096590  46.5883360  27.3000280  12.3217460  47.6372670
  27.2258980  13.2252600  47.9445040  26.3979120  12.0029360  47.6094740
  27.8485610  11.4875970  35.2599030  28.7436400  11.8260940  35.2817790
  27.8803240  10.7655380  34.6323310  21.4881770   6.8603020  33.4886030
  21.9256640   7.4032690  34.1443610  21.9729500   6.0349970  33.4982370
  18.7027570   9.6492050  40.9406290  19.0330580   8.7813110  40.7084930
  19.1318570   9.8550570  41.7711250  23.2989490   7.9801060  38.6008260
  22.9985030   7.8566030  39.5012170  23.1926980   7.1209650  38.1923990
  19.1917780  10.5162640  43.6787920  18.7548770  10.6963440  44.5112070
  19.7595460  11.2737260  43.5369640  34.8279960  10.0179640  47.9665230
  34.2281950  10.0772200  47.2229150  34.9573860   9.0784620  48.0962080
  36.0681410   7.7597460  33.3034940  35.2374370   7.8274110  33.7742170
  36.2453240   8.6501580  33.0001800  35.5237870   4.5044940  35.8069140
  36.2856780   5.0741590  35.9128830  35.5392240   3.9372140  36.5777450
  19.0242210   3.0282870  40.0376800  18.3691050   2.7594510  39.3936500
  19.8620160   2.9187350  39.5878780  36.5297840   5.3595040  40.6511070
  36.9006670   4.5762360  40.2447040  37.1699770   6.0484140  40.4728370
  33.5131600   6.7431620  46.0641390  32.6991440   7.1728780  46.3267180
  33.9205800   7.3550030  45.4510440  35.5757040   4.7979310  32.9641660
  35.8505880   5.7058190  32.8360880  35.3867780   4.7341840  33.9003650
  35.4722380   2.7348300  37.9571090  35.0965980   1.9676230  37.5252380
  34.7425500   3.1171000  38.4446020  20.0618140   3.4135440  44.5780140
  20.4291180   3.3262840  45.4576160  19.4928960   2.6501990  44.4787000
  34.8622000   1.8819820  47.5910610  34.6308090   1.6532570  46.6908560
  35.1226550   2.8019370  47.5455500  33.5707650  11.4950220  39.5909660
  34.1666720  11.1734790  38.9144080  33.8285800  11.0222040  40.3822930
  21.4770220   7.9268130  49.7400290  21.4339850   7.5561040  50.6214750
  21.6081230   8.8645700  49.8802110  25.1776250   9.4827720  45.3410010
  24.9367610   9.7502280  44.4540530  26.1178890   9.6533450  45.3960870
  36.4380410  11.5022100  46.1420650  35.9438690  11.8990970  45.4247780
  35.8293700  10.8771310  46.5357930  21.3158250  10.8730380  46.8598070
  20.7218570  10.7415080  47.5988110  21.3082090  10.0368520  46.3940170
  34.1219860  12.1445520  43.4207390  33.6622830  12.8961330  43.0465410
  33.4932320  11.4251990  43.3622190  20.9470480   8.2388760  45.8106110
  20.2204540   7.6194050  45.7432060  21.0079630   8.6329370  44.9404190
  24.5515580  10.4533760  42.5955520  25.0680600   9.8421120  42.0703780
  25.2012960  10.9562540  43.0866530  27.2911080  11.3442250  43.4224500
  27.5788890  11.0896550  42.5457510  27.8034300  10.7919610  44.0130070
  19.2300480  11.5563150  39.0202870  19.0622520  10.9233830  39.7184760
  18.3634990  11.7622550  38.6697060  20.8363180  10.2496380  36.4653010
  20.3110800  10.6304410  35.7614970  20.7607760  10.8747150  37.1862720
  27.3583440  12.2658350  50.7892700  28.2850750  12.0302620  50.8328660
  27.3433870  13.0930350  50.3078730  35.5928500  11.8083920  37.7866950
  35.7680690  11.1221660  37.1427870  34.8950070  12.3330970  37.3943620
  23.4356150  12.1978760  35.3402260  24.1674970  11.9138040  34.7926150
  23.6949820  11.9592040  36.2301640  22.5970940   8.3143490  35.3448590
  21.9679820   8.7828590  35.8934420  22.7118770   7.4692710  35.7794780
  33.9261000  11.4928210  50.6133740  34.7186320  10.9977440  50.4059700
  34.2194150  12.1718350  51.2209350  30.0520660   2.3649150  21.4949790
  29.9714710   1.4503760  21.2241500  29.6385080   2.8616220  20.7889500
  28.1838700   4.1428170  23.3759060  27.4080800   3.6628610  23.6657630
  28.8351630   3.4633820  23.2015220  22.2004530   4.4547980  24.2534820
  21.3689410   4.1996690  24.6531330  22.8085510   4.5258750  24.9892740
  32.2046130   8.5488360  22.1558190  31.7427660   7.7775600  22.4845360
  33.0171680   8.5754430  22.6610640  22.1805790   8.4888070  24.4492840
  22.4833830   7.5985810  24.2703060  22.9249380   9.0458290  24.2215090
  28.4309440  10.8346370  21.7762180  27.8120880  11.2903870  21.2056620
  29.2861220  10.9897830  21.3751880  27.6247690   6.8185360  23.3829220
  27.5555970   5.8775300  23.2218350  28.3867550   6.9086770  23.9551790
  29.2972790   5.7185610  19.1694090  28.6790060   6.1835060  18.6056810
  29.8096040   6.4113090  19.5863600  24.1604550   5.2461480  25.8477690
  23.8273930   5.8730400  26.4898760  24.3371230   5.7723360  25.0679360
  23.3723650   7.2142280  27.6626870  23.9897650   7.8893360  27.3811320
  22.5116770   7.6230260  27.5714370  18.6655990   6.4042140  16.5433720
  18.2883970   6.8929240  15.8118620  18.9229060   7.0767420  17.1740250
  34.2901240   8.6781690  25.5781510  33.6064760   9.3480800  25.5698180
  34.8295530   8.8762340  24.8126370  31.8259980  10.5225820  24.2926690
  31.8387140  10.1188110  23.4248950  31.2735200  11.2973110  24.1888120
  33.1205400   7.2442040  19.3816860  33.0101730   6.3016370  19.5066280
  33.1173650   7.6057680  20.2679620  31.2245420   5.4255660  25.6209300
  31.6414210   5.2115770  24.7862760  31.9485240   5.6828450  26.1917920
  28.6625680   2.8707360  18.7379350  27.7354960   2.8044740  18.9667820
  28.8150500   3.8087490  18.6234590  35.1707520   3.8242880  25.7125540
  34.3426150   3.8935970  25.2375670  35.7658000   4.4097190  25.2441370
  32.6922970   4.4327660  19.2414600  32.0735390   4.0947210  18.5940900
  32.6747420   3.7887420  19.9493790  24.2682320   3.3972100  21.5199080
  23.8639320   2.6849350  21.0244980  24.3545440   3.0525340  22.4087120
  24.7364020   7.0839660  23.6838290  24.4392310   6.4785130  23.0046070
  25.6863840   7.1216970  23.5727650  32.8249630  10.6571530  27.3461390
  32.3480190  11.4643720  27.1534000  32.1411420  10.0049860  27.4987600
  23.8282450   6.8221350  30.3346090  22.9310980   7.0461320  30.5819490
  23.8535320   6.9456290  29.3857490  30.8687670   3.6714470  16.2487350
  31.3080950   2.8336900  16.1025170  31.5816090   4.3043870  16.3351490
  22.6553670   3.6934670  28.9103460  22.5161440   4.5657470  29.2790860
  21.7735030   3.3507480  28.7651400  28.9783050   8.6110540  20.2168590
  29.4178960   9.3534870  19.8023980  28.9169940   8.8537110  21.1407550
  24.4534020   9.6356370  31.1188610  24.4249450  10.0399320  30.2517040
  24.2898990   8.7066730  30.9560210  20.9686950   2.2917080  19.0205730
  20.8484550   3.0179170  18.4087000  20.6587840   1.5219990  18.5433640
  36.4048840  10.4183470  32.4152780  36.8808560  10.8966360  33.0941860
  37.0256000  10.3500960  31.6898280  18.6072320   5.4632220  24.8274370
  18.6852740   5.5980990  23.8830090  19.2214000   4.7548110  25.0202490
  19.8519950   7.1632410  21.2380550  19.4448030   7.3047000  20.3834150
  20.7432960   6.8792570  21.0351760  35.8082090   7.6096320  29.5752790
  35.9345150   7.3708200  28.6569970  35.8503470   6.7780860  30.0474870
  29.6698830  11.3124320  28.1447600  30.1843500  11.2232330  28.9470030
  28.8267910  11.6584020  28.4375510  31.6453230  11.5979660  17.5731600
  31.4854370  11.3082600  18.4713430  31.4799940  10.8219790  17.0376830
  24.1241610  11.3778190  19.3503220  23.9484090  10.4613730  19.1371020
  23.2697350  11.7365480  19.5901020  31.3479360   9.1067220  16.1329600
  30.6544520   9.1044510  15.4731880  32.0902220   8.6826540  15.7023770
  30.9129290  10.7329930  20.2078090  31.3686240   9.9519310  20.5216710
  31.2521810  11.4436750  20.7519270  18.6631840   6.5046390  27.3668830
  18.8262880   6.0351750  26.5488200  19.1284290   5.9969950  28.0317670
  25.1601640   1.9785800  15.6497910  24.5918540   1.5304050  15.0233820
  25.8690640   2.3378580  15.1163060  20.2370820   5.8797820  29.5264640
  19.8525610   5.2391490  30.1247600  20.5483010   6.5833940  30.0959370
  26.3867960   2.7274360  25.0073260  26.7538090   2.2532930  25.7534600
  26.1973020   3.6015930  25.3481600  24.1767330   1.7683000  27.3257470
  23.8724400   2.6474980  27.5507830  25.1313790   1.8282790  27.3614910
  22.7049120   5.9743990  17.9224320  21.9311380   5.4341610  17.7623040
  23.4343750   5.4550600  17.5842080  33.4637100   4.9709350  23.7150710
  34.1836220   5.4664640  23.3246820  33.2618920   4.2927240  23.0704580
  28.8455900   5.0418410  29.6019710  28.7793210   4.1214080  29.3477300
  28.2161040   5.1393850  30.3164350  22.7486520   5.6424370  21.5603130
  23.2665190   4.8392630  21.5060020  22.2970540   5.5803510  22.4019960
  27.6356020   6.9090650  16.8330430  27.9771720   7.6532880  16.3373750
  26.8068730   7.2221770  17.1955260  20.2331060   2.6085740  28.4728830
  19.8746000   3.2739590  29.0602170  19.9385620   1.7769290  28.8441450
  23.4344180   3.0669980  31.3568380  23.1344320   3.2127160  30.4596200
  24.2055420   2.5075270  31.2641770  28.7772630   7.8638980  29.3523510
  28.7917170   6.9319940  29.1342420  28.0697730   7.9498740  29.9913280
  33.9109700   2.0478800  15.6222120  33.8273420   2.4793020  14.7718560
  34.6303890   2.5077150  16.0548940  34.9883840   4.5046320  28.6992090
  34.2632030   5.0975100  28.5021480  35.5159300   4.4969860  27.9005460
  34.9396950   8.9021060  18.3504250  34.2973110   8.2476680  18.6247970
  34.5527610   9.3076150  17.5744920  30.5183430   6.2306490  22.1975940
  30.8707250   5.6334620  21.5377310  29.6345760   5.9050720  22.3684190
  26.6046710   6.9904180  19.6046350  27.2917840   7.5373390  19.9853940
  25.8179130   7.5344910  19.6395960  18.7439110   2.6077000  15.0963430
  19.6133960   2.8901800  15.3799350  18.2529430   3.4212870  14.9812240
  25.9073920   3.9950210  19.2171710  26.3636700   4.8055460  19.4431900
  25.5562130   3.6773350  20.0490200  28.2106530   9.5056550  26.4464010
  28.8548750   9.7115930  27.1237430  28.5735970   8.7444950  25.9934860
  29.4838610   7.5088900  25.1641460  30.1260840   6.8082060  25.2773630
  30.0087960   8.2887340  24.9838350  33.3294330   7.7937520  14.8880600
  33.1031910   7.0767960  15.4805240  32.9390530   7.5449960  14.0502350
  31.2576230   8.3083800  28.3677520  31.5932470   8.8950490  29.0455440
  30.3376570   8.1776510  28.5975310  19.1110360  11.8204380  15.6625060
  19.4708000  12.4193720  15.0082330  18.9702700  12.3664270  16.4360090
  32.9110580   5.7109460  16.5494760  32.6232280   6.1722150  17.3372640
  33.7062750   5.2507230  16.8178980  19.0952220  10.0859240  30.1367460
  19.2043340   9.1453980  29.9962850  18.4432780  10.3513990  29.4881190
  27.0864810   8.3575130  31.5365580  26.7661680   7.6384370  32.0811270
  26.4123170   9.0330200  31.6101640  25.1278980   9.2035580  16.4798730
  25.1189080   9.9365270  15.8643240  24.2077340   8.9567160  16.5725690
  20.7285620   4.4250470  17.2245490  20.1213570   5.1649370  17.2340790
  21.2034970   4.5149830  16.3983690  28.1138580   9.2663820  15.1423920
  28.2150560   9.0627810  14.2125900  27.2140320   9.0122100  15.3471700
  26.7556690  11.7850140  19.8371590  27.0098190  11.7471530  18.9150960
  25.8069170  11.6583470  19.8299840  32.7609270   2.7042020  21.4130100
  31.8199410   2.7192250  21.5877790  33.0753340   1.9177980  21.8590400
  22.7390910   4.3861620  14.9734060  23.5054180   4.2742980  15.5359490
  22.8165600   3.6899590  14.3210830  34.7634850   9.8750870  23.0884360
  34.8882270  10.6982040  23.5608170  35.6300410   9.6641600  22.7408510
  22.2352380  11.9682080  22.7601490  22.9714860  11.4197540  23.0310060
  22.6193300  12.8338090  22.6207480  19.1197860   8.0355650  18.6343000
  18.1937640   8.2776790  18.6248410  19.5854290   8.8629910  18.5127750
  21.2410660  11.1528150  31.9487070  22.0423390  11.4740200  32.3622470
  20.7262480  10.7923730  32.6706980  25.3454690  11.1412390  14.5827060
  26.1383300  11.4301220  14.1308850  24.8259040  10.7104560  13.9039540
  30.0775290   7.2608020  31.8962480  29.4713450   7.2839620  31.1558230
  29.7729400   6.5291060  32.4329730  31.5075660  10.9888310  30.5071890
  32.4597410  10.9046330  30.4572130  31.3603880  11.6530020  31.1805680
  34.3984860  10.3682520  16.0063800  34.1126370   9.9547660  15.1917980
  34.2004410  11.2970230  15.8864320  18.9608470   3.6401610  30.8923120
  19.4647490   3.0608890  31.4639350  18.2215890   3.9241840  31.4299490
  25.8632090   6.3615800  14.4469410  25.7582730   5.7468150  15.1730790
  25.6956310   5.8381690  13.6632420  26.0146410   5.0472600  30.4258640
  25.2492080   5.6157600  30.3413310  26.1962370   4.7548810  29.5326870
  29.1034820   5.4235830  15.0511400  28.5544920   5.8705130  15.6954140
  29.7254080   4.9185080  15.5749070  33.1569760   6.7777930  30.9833660
  33.8979230   7.1153690  30.4801120  32.3942440   6.9469990  30.4303430
  20.9931550   1.7831200  31.7873190  21.0336890   1.4845070  32.6958420
  21.8477050   2.1838810  31.6280710  24.7709940   4.3826750  16.9476700
  25.1926360   4.2166620  17.7908090  24.8960780   3.5726980  16.4531840
  27.2837580   3.4064360  14.1953800  27.8043240   2.6913380  13.8294950
  27.9305980   4.0450230  14.4954310  31.8315420   4.8292760  29.5188870
  32.2456440   4.9837840  30.3679290  30.8966420   4.9547980  29.6814650
  32.3037590   2.1688920  31.5228020  32.8858360   1.4141240  31.4348500
  32.4799360   2.6996360  30.7459500  26.5930650   4.7813240  27.4884800
  27.0118760   5.6245970  27.3161040  25.6739280   4.9185280  27.2591580
  28.9294550   2.5129420  28.8722640  29.0490760   1.9170560  29.6117480
  29.7888550   2.5499110  28.4523940  31.2682450   3.0666610  27.4485150
  30.7417670   3.5909230  26.8450290  31.6113790   3.6994000  28.0794880
  24.4438070  11.0866250  28.6042530  23.9059160  11.8112310  28.2851230
  24.6972030  10.6096590  27.8139870  27.3000280  12.3217460  28.8629180
  27.2258980  13.2252600  29.1701550  26.3979120  12.0029360  28.8351250
  27.8485610  11.4875970  16.4855540  28.7436400  11.8260940  16.5074300
  27.8803240  10.7655380  15.8579820  21.4881770   6.8603020  14.7142540
  21.9256640   7.4032690  15.3700120  21.9729500   6.0349970  14.7238880
  18.7027570   9.6492050  22.1662800  19.0330580   8.7813110  21.9341440
  19.1318570   9.8550570  22.9967760  23.2989490   7.9801060  19.8264770
  22.9985030   7.8566030  20.7268680  23.1926980   7.1209650  19.4180500
  19.1917780  10.5162640  24.9044430  18.7548770  10.6963440  25.7368580
  19.7595460  11.2737260  24.7626150  34.8279960  10.0179640  29.1921740
  34.2281950  10.0772200  28.4485660  34.9573860   9.0784620  29.3218590
  36.0681410   7.7597460  14.5291450  35.2374370   7.8274110  14.9998680
  36.2453240   8.6501580  14.2258310  35.5237870   4.5044940  17.0325650
  36.2856780   5.0741590  17.1385340  35.5392240   3.9372140  17.8033960
  19.0242210   3.0282870  21.2633310  18.3691050   2.7594510  20.6193010
  19.8620160   2.9187350  20.8135290  36.5297840   5.3595040  21.8767580
  36.9006670   4.5762360  21.4703550  37.1699770   6.0484140  21.6984880
  33.5131600   6.7431620  27.2897900  32.6991440   7.1728780  27.5523690
  33.9205800   7.3550030  26.6766950  35.5757040   4.7979310  14.1898170
  35.8505880   5.7058190  14.0617390  35.3867780   4.7341840  15.1260160
  35.4722380   2.7348300  19.1827600  35.0965980   1.9676230  18.7508890
  34.7425500   3.1171000  19.6702530  20.0618140   3.4135440  25.8036650
  20.4291180   3.3262840  26.6832670  19.4928960   2.6501990  25.7043510
  34.8622000   1.8819820  28.8167120  34.6308090   1.6532570  27.9165070
  35.1226550   2.8019370  28.7712010  33.5707650  11.4950220  20.8166170
  34.1666720  11.1734790  20.1400590  33.8285800  11.0222040  21.6079440
  21.4770220   7.9268130  30.9656800  21.4339850   7.5561040  31.8471260
  21.6081230   8.8645700  31.1058620  25.1776250   9.4827720  26.5666520
  24.9367610   9.7502280  25.6797040  26.1178890   9.6533450  26.6217380
  21.3158250  10.8730380  28.0854580  20.7218570  10.7415080  28.8244620
  21.3082090  10.0368520  27.6196680  34.1219860  12.1445520  24.6463900
  33.6622830  12.8961330  24.2721920  33.4932320  11.4251990  24.5878700
  20.9470480   8.2388760  27.0362620  20.2204540   7.6194050  26.9688570
  21.0079630   8.6329370  26.1660700  24.5515580  10.4533760  23.8212030
  25.0680600   9.8421120  23.2960290  25.2012960  10.9562540  24.3123040
  27.2911080  11.3442250  24.6481010  27.5788890  11.0896550  23.7714020
  27.8034300  10.7919610  25.2386580  19.2300480  11.5563150  20.2459380
  19.0622520  10.9233830  20.9441270  18.3634990  11.7622550  19.8953570
  20.8363180  10.2496380  17.6909520  20.3110800  10.6304410  16.9871480
  20.7607760  10.8747150  18.4119230  27.3583440  12.2658350  32.0149210
  28.2850750  12.0302620  32.0585170  27.3433870  13.0930350  31.5335240
  35.5928500  11.8083920  19.0123460  35.7680690  11.1221660  18.3684380
  34.8950070  12.3330970  18.6200130  23.4356150  12.1978760  16.5658770
  24.1674970  11.9138040  16.0182660  23.6949820  11.9592040  17.4558150
  22.5970940   8.3143490  16.5705100  21.9679820   8.7828590  17.1190930
  22.7118770   7.4692710  17.0051290  33.9261000  11.4928210  31.8390250
  34.7186320  10.9977440  31.6316210  34.2194150  12.1718350  32.4465860
  30.0520660   2.3649150   2.7206300  29.9714710   1.4503760   2.4498010
  29.6385080   2.8616220   2.0146010  28.1838700   4.1428170   4.6015570
  27.4080800   3.6628610   4.8914140  28.8351630   3.4633820   4.4271730
  22.2004530   4.4547980   5.4791330  21.3689410   4.1996690   5.8787840
  22.8085510   4.5258750   6.2149250  32.2046130   8.5488360   3.3814700
  31.7427660   7.7775600   3.7101870  33.0171680   8.5754430   3.8867150
  22.1805790   8.4888070   5.6749350  22.4833830   7.5985810   5.4959570
  22.9249380   9.0458290   5.4471600  28.4309440  10.8346370   3.0018690
  27.8120880  11.2903870   2.4313130  29.2861220  10.9897830   2.6008390
  27.6247690   6.8185360   4.6085730  27.5555970   5.8775300   4.4474860
  28.3867550   6.9086770   5.1808300  24.1604550   5.2461480   7.0734200
  23.8273930   5.8730400   7.7155270  24.3371230   5.7723360   6.2935870
  23.3723650   7.2142280   8.8883380  23.9897650   7.8893360   8.6067830
  22.5116770   7.6230260   8.7970880  34.2901240   8.6781690   6.8038020
  33.6064760   9.3480800   6.7954690  34.8295530   8.8762340   6.0382880
  31.8259980  10.5225820   5.5183200  31.8387140  10.1188110   4.6505460
  31.2735200  11.2973110   5.4144630  31.2245420   5.4255660   6.8465810
  31.6414210   5.2115770   6.0119270  31.9485240   5.6828450   7.4174430
  35.1707520   3.8242880   6.9382050  34.3426150   3.8935970   6.4632180
  35.7658000   4.4097190   6.4697880  24.2682320   3.3972100   2.7455590
  23.8639320   2.6849350   2.2501490  24.3545440   3.0525340   3.6343630
  24.7364020   7.0839660   4.9094800  24.4392310   6.4785130   4.2302580
  25.6863840   7.1216970   4.7984160  32.8249630  10.6571530   8.5717900
  32.3480190  11.4643720   8.3790510  32.1411420  10.0049860   8.7244110
  23.8282450   6.8221350  11.5602600  22.9310980   7.0461320  11.8076000
  23.8535320   6.9456290  10.6114000  22.6553670   3.6934670  10.1359970
  22.5161440   4.5657470  10.5047370  21.7735030   3.3507480   9.9907910
  24.4534020   9.6356370  12.3445120  24.4249450  10.0399320  11.4773550
  24.2898990   8.7066730  12.1816720  36.4048840  10.4183470  13.6409290
  36.8808560  10.8966360  14.3198370  37.0256000  10.3500960  12.9154790
  18.6072320   5.4632220   6.0530880  18.6852740   5.5980990   5.1086600
  19.2214000   4.7548110   6.2459000  35.8082090   7.6096320  10.8009300
  35.9345150   7.3708200   9.8826480  35.8503470   6.7780860  11.2731380
  29.6698830  11.3124320   9.3704110  30.1843500  11.2232330  10.1726540
  28.8267910  11.6584020   9.6632020  18.6631840   6.5046390   8.5925340
  18.8262880   6.0351750   7.7744710  19.1284290   5.9969950   9.2574180
  20.2370820   5.8797820  10.7521150  19.8525610   5.2391490  11.3504110
  20.5483010   6.5833940  11.3215880  26.3867960   2.7274360   6.2329770
  26.7538090   2.2532930   6.9791110  26.1973020   3.6015930   6.5738110
  24.1767330   1.7683000   8.5513980  23.8724400   2.6474980   8.7764340
  25.1313790   1.8282790   8.5871420  33.4637100   4.9709350   4.9407220
  34.1836220   5.4664640   4.5503330  33.2618920   4.2927240   4.2961090
  28.8455900   5.0418410  10.8276220  28.7793210   4.1214080  10.5733810
  28.2161040   5.1393850  11.5420860  22.7486520   5.6424370   2.7859640
  23.2665190   4.8392630   2.7316530  22.2970540   5.5803510   3.6276470
  20.2331060   2.6085740   9.6985340  19.8746000   3.2739590  10.2858680
  19.9385620   1.7769290  10.0697960  23.4344180   3.0669980  12.5824890
  23.1344320   3.2127160  11.6852710  24.2055420   2.5075270  12.4898280
  28.7772630   7.8638980  10.5780020  28.7917170   6.9319940  10.3598930
  28.0697730   7.9498740  11.2169790  34.9883840   4.5046320   9.9248600
  34.2632030   5.0975100   9.7277990  35.5159300   4.4969860   9.1261970
  30.5183430   6.2306490   3.4232450  30.8707250   5.6334620   2.7633820
  29.6345760   5.9050720   3.5940700  28.2106530   9.5056550   7.6720520
  28.8548750   9.7115930   8.3493940  28.5735970   8.7444950   7.2191370
  29.4838610   7.5088900   6.3897970  30.1260840   6.8082060   6.5030140
  30.0087960   8.2887340   6.2094860  31.2576230   8.3083800   9.5934030
  31.5932470   8.8950490  10.2711950  30.3376570   8.1776510   9.8231820
  19.0952220  10.0859240  11.3623970  19.2043340   9.1453980  11.2219360
  18.4432780  10.3513990  10.7137700  27.0864810   8.3575130  12.7622090
  26.7661680   7.6384370  13.3067780  26.4123170   9.0330200  12.8358150
  32.7609270   2.7042020   2.6386610  31.8199410   2.7192250   2.8134300
  33.0753340   1.9177980   3.0846910  34.7634850   9.8750870   4.3140870
  34.8882270  10.6982040   4.7864680  35.6300410   9.6641600   3.9665020
  22.2352380  11.9682080   3.9858000  22.9714860  11.4197540   4.2566570
  22.6193300  12.8338090   3.8463990  21.2410660  11.1528150  13.1743580
  22.0423390  11.4740200  13.5878980  20.7262480  10.7923730  13.8963490
  30.0775290   7.2608020  13.1218990  29.4713450   7.2839620  12.3814740
  29.7729400   6.5291060  13.6586240  31.5075660  10.9888310  11.7328400
  32.4597410  10.9046330  11.6828640  31.3603880  11.6530020  12.4062190
  18.9608470   3.6401610  12.1179630  19.4647490   3.0608890  12.6895860
  18.2215890   3.9241840  12.6556000  26.0146410   5.0472600  11.6515150
  25.2492080   5.6157600  11.5669820  26.1962370   4.7548810  10.7583380
  33.1569760   6.7777930  12.2090170  33.8979230   7.1153690  11.7057630
  32.3942440   6.9469990  11.6559940  20.9931550   1.7831200  13.0129700
  21.0336890   1.4845070  13.9214930  21.8477050   2.1838810  12.8537220
  31.8315420   4.8292760  10.7445380  32.2456440   4.9837840  11.5935800
  30.8966420   4.9547980  10.9071160  32.3037590   2.1688920  12.7484530
  32.8858360   1.4141240  12.6605010  32.4799360   2.6996360  11.9716010
  26.5930650   4.7813240   8.7141310  27.0118760   5.6245970   8.5417550
  25.6739280   4.9185280   8.4848090  28.9294550   2.5129420  10.0979150
  29.0490760   1.9170560  10.8373990  29.7888550   2.5499110   9.6780450
  31.2682450   3.0666610   8.6741660  30.7417670   3.5909230   8.0706800
  31.6113790   3.6994000   9.3051390  24.4438070  11.0866250   9.8299040
  23.9059160  11.8112310   9.5107740  24.6972030  10.6096590   9.0396380
  27.3000280  12.3217460  10.0885690  27.2258980  13.2252600  10.3958060
  26.3979120  12.0029360  10.0607760  18.7027570   9.6492050   3.3919310
  19.0330580   8.7813110   3.1597950  19.1318570   9.8550570   4.2224270
  19.1917780  10.5162640   6.1300940  18.7548770  10.6963440   6.9625090
  19.7595460  11.2737260   5.9882660  34.8279960  10.0179640  10.4178250
  34.2281950  10.0772200   9.6742170  34.9573860   9.0784620  10.5475100
  19.0242210   3.0282870   2.4889820  18.3691050   2.7594510   1.8449520
  19.8620160   2.9187350   2.0391800  36.5297840   5.3595040   3.1024090
  36.9006670   4.5762360   2.6960060  37.1699770   6.0484140   2.9241390
  33.5131600   6.7431620   8.5154410  32.6991440   7.1728780   8.7780200
  33.9205800   7.3550030   7.9023460  20.0618140   3.4135440   7.0293160
  20.4291180   3.3262840   7.9089180  19.4928960   2.6501990   6.9300020
  34.8622000   1.8819820  10.0423630  34.6308090   1.6532570   9.1421580
  35.1226550   2.8019370   9.9968520  21.4770220   7.9268130  12.1913310
  21.4339850   7.5561040  13.0727770  21.6081230   8.8645700  12.3315130
  25.1776250   9.4827720   7.7923030  24.9367610   9.7502280   6.9053550
  26.1178890   9.6533450   7.8473890  36.4380410  11.5022100   8.5933670
  35.9438690  11.8990970   7.8760800  35.8293700  10.8771310   8.9870950
  21.3158250  10.8730380   9.3111090  20.7218570  10.7415080  10.0501130
  21.3082090  10.0368520   8.8453190  34.1219860  12.1445520   5.8720410
  33.6622830  12.8961330   5.4978430  33.4932320  11.4251990   5.8135210
  20.9470480   8.2388760   8.2619130  20.2204540   7.6194050   8.1945080
  21.0079630   8.6329370   7.3917210  24.5515580  10.4533760   5.0468540
  25.0680600   9.8421120   4.5216800  25.2012960  10.9562540   5.5379550
  27.2911080  11.3442250   5.8737520  27.5788890  11.0896550   4.9970530
  27.8034300  10.7919610   6.4643090  27.3583440  12.2658350  13.2405720
  28.2850750  12.0302620  13.2841680  27.3433870  13.0930350  12.7591750
  33.9261000  11.4928210  13.0646760  34.7186320  10.9977440  12.8572720
  34.2194150  12.1718350  13.6722370  11.2777170  77.4623110  59.0436770
  11.1971220  76.5477720  58.7728480  10.8641590  77.9590180  58.3376480
   9.4095210  79.2402130  60.9246040   8.6337310  78.7602570  61.2144610
  10.0608140  78.5607780  60.7502200   3.4261040  79.5521940  61.8021800
   2.5945920  79.2970650  62.2018310   4.0342020  79.6232710  62.5379720
   9.8809370  74.7229700  61.1585130  10.2574190  73.8501580  61.0458800
   9.7828880  75.0588400  60.2675570   4.0114380  73.0955330  56.6202570
   4.1181130  73.9959060  56.9271330   3.1006740  73.0473300  56.3297220
  13.6633490  72.2180140  58.0913470  14.4843110  71.7276710  58.1338950
  13.6967570  72.8077800  58.8445310   5.8522110  76.0641700  60.9527750
   6.3600330  76.5622670  61.5932770   6.3835350  75.2876900  60.7767110
  13.8994970  74.1580520  60.8641010  13.1950540  74.4465410  61.4444120
  14.2607130  74.9680630  60.5040570  16.9681890  73.6035310  61.2550220
  16.0206800  73.6374290  61.3865650  17.2931880  74.4174260  61.6399580
   7.5001430  69.9032490  59.5506210   7.8076410  69.3479380  58.8341710
   6.5702130  70.0376950  59.3679200   9.8882190  77.9681320  56.2866330
   8.9611470  77.9018700  56.5154800  10.0407010  78.9061450  56.1721570
   9.8751270  74.2398320  53.2833490   8.9354940  74.4012280  53.3685950
  10.1934530  74.9584000  52.7369480  16.3964030  78.9216840  63.2612520
  15.5682660  78.9909930  62.7862650  16.9914510  79.5071150  62.7928350
  13.9179480  79.5301620  56.7901580  13.2991900  79.1921170  56.1427880
  13.9003930  78.8861380  57.4980770   5.4938830  78.4946060  59.0686060
   5.0895830  77.7823310  58.5731960   5.5801950  78.1499300  59.9574100
  12.0944180  78.7688430  53.7974330  12.5337460  77.9310860  53.6512150
  12.8072600  79.4017830  53.8838470  15.6761320  70.0231240  52.1115370
  15.3633980  70.1158070  53.0114440  16.4373790  70.6012270  52.0612800
   2.1943460  77.3891040  56.5692710   2.0741060  78.1153130  55.9573980
   1.8844350  76.6193950  56.0920620   4.6607120  70.7326110  59.9516380
   4.2175270  71.5135650  59.6200900   5.2192110  71.0556000  60.6587320
   7.7765940  70.3536810  54.8322210   7.1520120  70.3496680  55.5575520
   7.6896060  69.4867770  54.4358180   6.6983020  71.2773440  61.8105980
   6.9955350  72.1836270  61.7298000   7.2468580  70.7892220  61.1965550
   4.4521340  75.8559680  57.6797630   4.2262260  75.6396850  58.5844250
   3.6713870  76.2888140  57.3343600  11.6819100  75.8623050  56.2788280
  11.0827990  76.5858850  56.0951900  12.2298710  75.7999830  55.4964730
  10.2883970  74.4986590  58.3091560  10.6813540  74.8158790  57.4960250
  10.6500820  73.6198470  58.4236080  10.8739110  77.0892340  62.4042340
  10.1420230  77.5979150  62.7532440  10.4763450  76.2722320  62.1031120
   7.3116500  73.7646540  60.8094830   7.3152560  73.3236490  59.9599370
   8.2067620  74.0863870  60.9166650   3.1618880  73.6473030  59.7689040
   2.8218930  74.1248260  60.5256090   2.3996200  73.1938150  59.4090140
   7.3736650  74.7658620  53.8001590   7.4949470  74.7245100  54.7487410
   6.9885160  75.6282770  53.6448320  11.3365020  72.5426020  61.8165280
  11.3537760  72.9934670  62.6607130  11.0880600  71.6431660  62.0298720
   6.3858150  77.0759760  53.1984890   5.8175050  76.6278010  52.5720800
   7.0947150  77.4352540  52.6650040  10.1503550  71.4621270  55.4067080
   9.3368160  70.9634440  55.3312390   9.9565500  72.3019520  54.9903430
  12.8651940  75.8340920  53.7029240  13.7531560  76.1458150  53.5280580
  12.8357030  74.9613170  53.3109820  15.1366210  77.1452760  53.1709100
  15.0529930  77.5766980  52.3205540  15.8560400  77.6051110  53.6035920
   7.1330430  79.0924170  56.7658690   7.5893210  79.9029420  56.9918880
   6.7818640  78.7747310  57.5977180   3.0342210  69.4361820  57.2381210
   2.9056840  69.4279720  58.1866130   2.2104230  69.7744910  56.8872220
  14.8936950  72.6432190  55.2576920  14.2650110  72.7477860  54.5435150
  14.3988870  72.8628970  56.0470800   6.8620980  74.9218140  56.6734800
   6.1537130  75.3904480  57.1148410   7.1465460  74.2640150  57.3079990
  10.8936410  71.6468800  58.1130590  10.7704190  71.6654930  57.1640100
  11.8420970  71.6947740  58.2328990   5.0656000  73.2303220  54.0485510
   5.9146530  73.6673370  53.9825700   4.6987270  73.5423480  54.8757570
  13.9865780  77.8015980  58.9617080  13.0455920  77.8166210  59.1364770
  14.3009850  77.0151940  59.4077380   3.9647420  79.4835580  52.5221040
   4.7310690  79.3716940  53.0846470   4.0422110  78.7873550  51.8697810
   2.6594180  76.9160650  53.2053930   2.7397770  75.9688160  53.3171330
   3.5513930  77.2467530  53.3114590   5.9966450  79.4800710  54.4963680
   6.4182870  79.3140580  55.3395070   6.1217290  78.6700940  54.0018820
   8.5094090  78.5038320  51.7440780   9.0299750  77.7887340  51.3781930
   9.1562490  79.1424190  52.0441290   4.8925350  75.5533940  51.4421840
   4.6914410  74.6901300  51.8035180   4.7217400  75.4667300  50.5043440
  12.3713660  70.3642170  53.9708720  12.6515950  69.5210070  54.3268140
  11.5979390  70.5965280  54.4847470   3.6908150  72.6534560  51.4299720
   3.9934050  72.6601990  50.5218870   4.4302740  72.3032420  51.9267380
   6.9093080  71.5969180  52.4155920   6.5615080  70.9193170  51.8358370
   7.1105850  71.1358690  53.2299310  13.1989160  72.9198120  53.0338780
  13.6174040  72.7329100  52.1935440  12.8925220  72.0677170  53.3441710
  16.6978890  77.8322260  56.7314580  16.3222490  77.0650190  56.2995870
  15.9682010  78.2144960  57.2189510  15.9729850  76.0579750  60.0321820
  16.4967330  75.5642400  59.4011990  16.5589270  76.1930110  60.7769390
  15.4629820  75.3153100  55.9714230  15.9588940  75.0823970  56.7563110
  15.2645890  74.4764940  55.5551870  16.8916980  73.9514050  58.5051910
  16.7816260  73.7970090  59.4434180  17.6524570  73.4234990  58.2627320
  17.7807250  71.7821970  51.7458050  18.7056560  71.6503150  51.5376340
  17.7583040  71.8614790  52.6994500  17.8545740  72.5532630  54.3714760
  17.0597240  72.4877750  54.9007670  18.0589020  73.4883270  54.3600110
   9.7344600  70.1806410  62.7764500   8.9516390  70.6551910  63.0561260
   9.4407530  69.2761240  62.6677680  14.2865670  70.8829510  60.8213590
  14.7273760  70.8274610  59.9735190  14.0173260  71.7987520  60.8923770
  16.1504240  70.5144750  58.8322410  16.0892640  69.5705970  58.6853430
  16.9296270  70.6224840  59.3775870   7.6198820  72.5993160  58.2880530
   6.8073330  72.2250050  57.9476410   8.1240460  71.8438240  58.5901720
  12.1223800  69.2635610  59.5263600  12.7253170  69.8355820  60.0012120
  11.3816790  69.8275050  59.3037500  15.2658400  69.6657170  54.8003880
  15.4609030  70.5640620  55.0671310  14.4788270  69.4344250  55.2936830
   3.4510160  71.0117940  53.8380190   3.9802920  70.2247740  53.7088140
   4.0838480  71.6909130  54.0715720   5.6448000  70.7493080  56.8925580
   5.0150740  70.0480390  57.0595710   5.1053140  71.5097210  56.6758740
  11.2777170  77.4623110  40.2693280  11.1971220  76.5477720  39.9984990
  10.8641590  77.9590180  39.5632990   9.4095210  79.2402130  42.1502550
   8.6337310  78.7602570  42.4401120  10.0608140  78.5607780  41.9758710
   3.4261040  79.5521940  43.0278310   2.5945920  79.2970650  43.4274820
   4.0342020  79.6232710  43.7636230   9.8809370  74.7229700  42.3841640
  10.2574190  73.8501580  42.2715310   9.7828880  75.0588400  41.4932080
   4.0114380  73.0955330  37.8459080   4.1181130  73.9959060  38.1527840
   3.1006740  73.0473300  37.5553730  13.6633490  72.2180140  39.3169980
  14.4843110  71.7276710  39.3595460  13.6967570  72.8077800  40.0701820
   5.8522110  76.0641700  42.1784260   6.3600330  76.5622670  42.8189280
   6.3835350  75.2876900  42.0023620  17.9533040  74.2346890  45.8813610
  17.2485210  74.6228600  45.3628720  18.2190960  74.9297180  46.4834540
   4.1358210  70.7040260  46.4447680   4.1376650  71.2212650  45.6393580
   3.3062520  70.2270440  46.4217610  13.8994970  74.1580520  42.0897520
  13.1950540  74.4465410  42.6700630  14.2607130  74.9680630  41.7297080
   3.8173540  72.4150220  44.4518130   4.1590350  73.2592270  44.1572000
   2.8789350  72.5633960  44.5683470  16.9681890  73.6035310  42.4806730
  16.0206800  73.6374290  42.6122160  17.2931880  74.4174260  42.8656090
   7.5001430  69.9032490  40.7762720   7.8076410  69.3479380  40.0598220
   6.5702130  70.0376950  40.5935710   9.8882190  77.9681320  37.5122840
   8.9611470  77.9018700  37.7411310  10.0407010  78.9061450  37.3978080
   9.8751270  74.2398320  34.5090000   8.9354940  74.4012280  34.5942460
  10.1934530  74.9584000  33.9625990  16.3964030  78.9216840  44.4869030
  15.5682660  78.9909930  44.0119160  16.9914510  79.5071150  44.0184860
  13.9179480  79.5301620  38.0158090  13.2991900  79.1921170  37.3684390
  13.9003930  78.8861380  38.7237280  13.3606040  75.7086160  45.4323900
  12.9477220  76.5339870  45.6863890  12.6281990  75.1231200  45.2400260
   5.4938830  78.4946060  40.2942570   5.0895830  77.7823310  39.7988470
   5.5801950  78.1499300  41.1830610   4.2067450  75.2689270  44.0741610
   4.7582040  75.3784610  43.2994860   4.7210960  75.6426870  44.7896840
  12.0944180  78.7688430  35.0230840  12.5337460  77.9310860  34.8768660
  12.8072600  79.4017830  35.1094980   3.8810180  78.7908630  47.6846950
   3.7417950  79.6631430  48.0534350   2.9991540  78.4481440  47.5394890
  15.6761320  70.0231240  33.3371880  15.3633980  70.1158070  34.2370950
  16.4373790  70.6012270  33.2869310   2.1943460  77.3891040  37.7949220
   2.0741060  78.1153130  37.1830490   1.8844350  76.6193950  37.3177130
  16.8862610  74.7602740  49.3146020  16.2706880  75.2682410  48.7861480
  16.5659030  73.8601070  49.2571960   4.6607120  70.7326110  41.1772890
   4.2175270  71.5135650  40.8457410   5.2192110  71.0556000  41.8843830
   8.9476930  73.5994630  46.7808210   8.4856300  73.8077650  47.5928150
   8.5455040  72.7853980  46.4778880  13.9481440  74.8203580  47.9104870
  13.0975030  74.5209330  48.2313940  13.7883230  75.0645590  46.9988690
  11.0431150  76.3205330  50.0103660  11.3684560  75.4869080  49.6705890
  11.8311480  76.8433850  50.1581990   7.7765940  70.3536810  36.0578720
   7.1520120  70.3496680  36.7832030   7.6896060  69.4867770  35.6614690
   6.6983020  71.2773440  43.0362490   6.9955350  72.1836270  42.9554510
   7.2468580  70.7892220  42.4222060   4.4521340  75.8559680  38.9054140
   4.2262260  75.6396850  39.8100760   3.6713870  76.2888140  38.5600110
  11.6819100  75.8623050  37.5044790  11.0827990  76.5858850  37.3208410
  12.2298710  75.7999830  36.7221240   6.8920550  76.7545260  49.5714410
   6.7964150  75.8139990  49.4214810   7.7352530  76.9760330  49.1762480
  10.2883970  74.4986590  39.5348070  10.6813540  74.8158790  38.7216760
  10.6500820  73.6198470  39.6492590   8.5976140  73.2493900  50.7944930
   7.9074460  73.0566100  51.4291020   9.3408440  73.5328540  51.3269230
  10.8739110  77.0892340  43.6298850  10.1420230  77.5979150  43.9788950
  10.4763450  76.2722320  43.3287630   7.3116500  73.7646540  42.0351340
   7.3152560  73.3236490  41.1855880   8.2067620  74.0863870  42.1423160
   3.1618880  73.6473030  40.9945550   2.8218930  74.1248260  41.7512600
   2.3996200  73.1938150  40.6346650   7.3736650  74.7658620  35.0258100
   7.4949470  74.7245100  35.9743920   6.9885160  75.6282770  34.8704830
  11.3365020  72.5426020  43.0421790  11.3537760  72.9934670  43.8863640
  11.0880600  71.6431660  43.2555230   6.3858150  77.0759760  34.4241400
   5.8175050  76.6278010  33.7977310   7.0947150  77.4352540  33.8906550
  14.7635770  69.9558200  48.8808170  15.0881540  69.2247860  49.4066150
  14.7992280  69.6371840  47.9789160   7.6124470  77.8248320  43.7816750
   7.9794600  77.3506890  44.5278090   7.4229530  78.6989890  44.1225090
   5.4023840  76.8656960  46.1000960   5.0980910  77.7448940  46.3251320
   6.3570300  76.9256750  46.1358400  10.1503550  71.4621270  36.6323590
   9.3368160  70.9634440  36.5568900   9.9565500  72.3019520  36.2159940
  12.8651940  75.8340920  34.9285750  13.7531560  76.1458150  34.7537090
  12.8357030  74.9613170  34.5366330   4.6600690  78.1643940  50.1311870
   4.3600830  78.3101120  49.2339690   5.4311930  77.6049230  50.0385260
  15.1366210  77.1452760  34.3965610  15.0529930  77.5766980  33.5462050
  15.8560400  77.6051110  34.8292430   7.1330430  79.0924170  37.9915200
   7.5893210  79.9029420  38.2175390   6.7818640  78.7747310  38.8233690
   3.0342210  69.4361820  38.4637720   2.9056840  69.4279720  39.4122640
   2.2104230  69.7744910  38.1128730  11.5274920  73.6875250  45.6745870
  11.8955740  72.8670460  46.0025440  10.6673120  73.7477140  46.0901520
  14.8936950  72.6432190  36.4833430  14.2650110  72.7477860  35.7691660
  14.3988870  72.8628970  37.2727310   6.8620980  74.9218140  37.8991310
   6.1537130  75.3904480  38.3404920   7.1465460  74.2640150  38.5336500
   8.4876910  76.3414840  45.8983840   8.9862160  76.8160660  46.5635690
   8.6299860  75.4178360  46.1053870  10.8936410  71.6468800  39.3387100
  10.7704190  71.6654930  38.3896610  11.8420970  71.6947740  39.4585500
   5.0656000  73.2303220  35.2742020   5.9146530  73.6673370  35.2082210
   4.6987270  73.5423480  36.1014080  15.6943770  72.5582800  46.7412230
  15.1917370  73.2988200  47.0806040  16.5100430  72.9466800  46.4249020
  13.9865780  77.8015980  40.1873590  13.0455920  77.8166210  40.3621280
  14.3009850  77.0151940  40.6333890   3.9647420  79.4835580  33.7477550
   4.7310690  79.3716940  34.3102980   4.0422110  78.7873550  33.0954320
   2.6594180  76.9160650  34.4310440   2.7397770  75.9688160  34.5427840
   3.5513930  77.2467530  34.5371100   2.2188060  76.8805160  50.5616680
   2.2593400  76.5819030  51.4701910   3.0733560  77.2812770  50.4024200
   5.9966450  79.4800710  35.7220190   6.4182870  79.3140580  36.5651580
   6.1217290  78.6700940  35.2275330   4.1593870  75.4597260  48.5291170
   3.6290330  74.9688210  47.9014510   4.8281940  75.8881460  47.9949100
   8.5094090  78.5038320  32.9697290   9.0299750  77.7887340  32.6038440
   9.1562490  79.1424190  33.2697800  13.5294100  77.2662880  50.2971510
  14.1114870  76.5115200  50.2091990  13.7055870  77.7970320  49.5202990
   4.6466170  72.4259630  48.6088460   4.5523040  71.8080380  47.8839330
   4.0663560  73.1525920  48.3818370   7.4127610  70.9832870  45.6415850
   6.9644910  71.0057130  44.7961400   6.7792810  70.5851890  46.2386150
  10.1551060  77.6103380  47.6466130  10.2747270  77.0144520  48.3860970
  11.0145060  77.6473070  47.2267430  12.4938960  78.1640570  46.2228640
  11.9674180  78.6883190  45.6193780  12.8370300  78.7967960  46.8538370
   4.8925350  75.5533940  32.6678350   4.6914410  74.6901300  33.0291690
   4.7217400  75.4667300  31.7299950   6.9219830  74.1524730  48.9041950
   7.5119520  73.8440580  49.5919770   6.1040070  73.6804480  49.0601850
  11.7413260  73.7690540  49.1374970  11.0528780  73.1072080  49.0724960
  12.4619280  73.3228810  49.5823430  12.3713660  70.3642170  35.1965230
  12.6515950  69.5210070  35.5524650  11.5979390  70.5965280  35.7103980
   3.6908150  72.6534560  32.6556230   3.9934050  72.6601990  31.7475380
   4.4302740  72.3032420  33.1523890   6.9093080  71.5969180  33.6412430
   6.5615080  70.9193170  33.0614880   7.1105850  71.1358690  34.4555820
  13.1989160  72.9198120  34.2595290  13.6174040  72.7329100  33.4191950
  12.8925220  72.0677170  34.5698220  16.6978890  77.8322260  37.9571090
  16.3222490  77.0650190  37.5252380  15.9682010  78.2144960  38.4446020
  16.0878510  76.9793780  47.5910610  15.8564600  76.7506530  46.6908560
  16.3483060  77.8993330  47.5455500  14.5266580  72.2050210  50.3690310
  15.4036760  72.2133610  50.7524310  14.5387420  71.4681050  49.7582660
  15.9729850  76.0579750  41.2578330  16.4967330  75.5642400  40.6268500
  16.5589270  76.1930110  42.0025900  16.1519570  76.1419620  44.7797880
  15.2022280  76.1083160  44.8942870  16.3332580  77.0519730  44.5447650
  15.4629820  75.3153100  37.1970740  15.9588940  75.0823970  37.9819620
  15.2645890  74.4764940  36.7808380  16.8916980  73.9514050  39.7308420
  16.7816260  73.7970090  40.6690690  17.6524570  73.4234990  39.4883830
  15.2382700  69.8908180  46.1891420  15.8754920  70.5042320  46.5550610
  15.3857590  69.9268840  45.2440650  17.7807250  71.7821970  32.9714560
  18.7056560  71.6503150  32.7632850  17.7583040  71.8614790  33.9251010
  17.8545740  72.5532630  35.5971270  17.0597240  72.4877750  36.1264180
  18.0589020  73.4883270  35.5856620   8.6087180  71.0434370  49.0966520
   8.5476070  71.6356200  49.8461930   9.5487560  70.9360330  48.9516780
  11.2461740  70.7004430  48.7358810  11.8602150  71.0183720  48.0739890
  11.7911300  70.2153020  49.3554670   1.7683000  69.3798690  48.8497870
   2.3165990  69.1986740  48.0863980   1.8338310  68.5892800  49.3854180
  11.9869780  69.2636570  45.0628100  11.1129620  69.5971680  44.8601030
  11.8780530  68.7909750  45.8879970  12.8941760  71.4707440  46.4469820
  12.5655120  70.6559200  46.0671550  13.8424060  71.4277250  46.3235510
   9.7344600  70.1806410  44.0021010   8.9516390  70.6551910  44.2817770
   9.4407530  69.2761240  43.8934190  14.2865670  70.8829510  42.0470100
  14.7273760  70.8274610  41.1991700  14.0173260  71.7987520  42.1180280
  16.1504240  70.5144750  40.0578920  16.0892640  69.5705970  39.9109940
  16.9296270  70.6224840  40.6032380   7.6198820  72.5993160  39.5137040
   6.8073330  72.2250050  39.1732920   8.1240460  71.8438240  39.8158230
  12.1223800  69.2635610  40.7520110  12.7253170  69.8355820  41.2268630
  11.3816790  69.8275050  40.5294010  15.2658400  69.6657170  36.0260390
  15.4609030  70.5640620  36.2927820  14.4788270  69.4344250  36.5193340
   3.4510160  71.0117940  35.0636700   3.9802920  70.2247740  34.9344650
   4.0838480  71.6909130  35.2972230   5.6448000  70.7493080  38.1182090
   5.0150740  70.0480390  38.2852220   5.1053140  71.5097210  37.9015250
   5.7703560  70.0277060  50.5534580   5.4887830  70.5310660  49.7895400
   6.1523260  69.2298810  50.1876710  12.3719020  69.4430640  51.1315050
  12.2584470  69.7625250  52.0266570  13.1888760  69.8443150  50.8352330
  11.2777170  77.4623110  21.4949790  11.1971220  76.5477720  21.2241500
  10.8641590  77.9590180  20.7889500   9.4095210  79.2402130  23.3759060
   8.6337310  78.7602570  23.6657630  10.0608140  78.5607780  23.2015220
   3.4261040  79.5521940  24.2534820   2.5945920  79.2970650  24.6531330
   4.0342020  79.6232710  24.9892740   9.8809370  74.7229700  23.6098150
  10.2574190  73.8501580  23.4971820   9.7828880  75.0588400  22.7188590
   4.0114380  73.0955330  19.0715590   4.1181130  73.9959060  19.3784350
   3.1006740  73.0473300  18.7810240  13.6633490  72.2180140  20.5426490
  14.4843110  71.7276710  20.5851970  13.6967570  72.8077800  21.2958330
   5.8522110  76.0641700  23.4040770   6.3600330  76.5622670  24.0445790
   6.3835350  75.2876900  23.2280130  17.9533040  74.2346890  27.1070120
  17.2485210  74.6228600  26.5885230  18.2190960  74.9297180  27.7091050
   4.1358210  70.7040260  27.6704190   4.1376650  71.2212650  26.8650090
   3.3062520  70.2270440  27.6474120  13.8994970  74.1580520  23.3154030
  13.1950540  74.4465410  23.8957140  14.2607130  74.9680630  22.9553590
   3.8173540  72.4150220  25.6774640   4.1590350  73.2592270  25.3828510
   2.8789350  72.5633960  25.7939980  16.9681890  73.6035310  23.7063240
  16.0206800  73.6374290  23.8378670  17.2931880  74.4174260  24.0912600
   7.5001430  69.9032490  22.0019230   7.8076410  69.3479380  21.2854730
   6.5702130  70.0376950  21.8192220   9.8882190  77.9681320  18.7379350
   8.9611470  77.9018700  18.9667820  10.0407010  78.9061450  18.6234590
   9.8751270  74.2398320  15.7346510   8.9354940  74.4012280  15.8198970
  10.1934530  74.9584000  15.1882500  16.3964030  78.9216840  25.7125540
  15.5682660  78.9909930  25.2375670  16.9914510  79.5071150  25.2441370
  13.9179480  79.5301620  19.2414600  13.2991900  79.1921170  18.5940900
  13.9003930  78.8861380  19.9493790  13.3606040  75.7086160  26.6580410
  12.9477220  76.5339870  26.9120400  12.6281990  75.1231200  26.4656770
   5.4938830  78.4946060  21.5199080   5.0895830  77.7823310  21.0244980
   5.5801950  78.1499300  22.4087120   4.2067450  75.2689270  25.2998120
   4.7582040  75.3784610  24.5251370   4.7210960  75.6426870  26.0153350
  12.0944180  78.7688430  16.2487350  12.5337460  77.9310860  16.1025170
  12.8072600  79.4017830  16.3351490   3.8810180  78.7908630  28.9103460
   3.7417950  79.6631430  29.2790860   2.9991540  78.4481440  28.7651400
  15.6761320  70.0231240  14.5628390  15.3633980  70.1158070  15.4627460
  16.4373790  70.6012270  14.5125820   2.1943460  77.3891040  19.0205730
   2.0741060  78.1153130  18.4087000   1.8844350  76.6193950  18.5433640
  16.8862610  74.7602740  30.5402530  16.2706880  75.2682410  30.0117990
  16.5659030  73.8601070  30.4828470   4.6607120  70.7326110  22.4029400
   4.2175270  71.5135650  22.0713920   5.2192110  71.0556000  23.1100340
   8.9476930  73.5994630  28.0064720   8.4856300  73.8077650  28.8184660
   8.5455040  72.7853980  27.7035390  13.9481440  74.8203580  29.1361380
  13.0975030  74.5209330  29.4570450  13.7883230  75.0645590  28.2245200
  11.0431150  76.3205330  31.2360170  11.3684560  75.4869080  30.8962400
  11.8311480  76.8433850  31.3838500   7.7765940  70.3536810  17.2835230
   7.1520120  70.3496680  18.0088540   7.6896060  69.4867770  16.8871200
   6.6983020  71.2773440  24.2619000   6.9955350  72.1836270  24.1811020
   7.2468580  70.7892220  23.6478570   4.4521340  75.8559680  20.1310650
   4.2262260  75.6396850  21.0357270   3.6713870  76.2888140  19.7856620
  11.6819100  75.8623050  18.7301300  11.0827990  76.5858850  18.5464920
  12.2298710  75.7999830  17.9477750   6.8920550  76.7545260  30.7970920
   6.7964150  75.8139990  30.6471320   7.7352530  76.9760330  30.4018990
  10.2883970  74.4986590  20.7604580  10.6813540  74.8158790  19.9473270
  10.6500820  73.6198470  20.8749100   8.5976140  73.2493900  32.0201440
   7.9074460  73.0566100  32.6547530   9.3408440  73.5328540  32.5525740
  10.8739110  77.0892340  24.8555360  10.1420230  77.5979150  25.2045460
  10.4763450  76.2722320  24.5544140   7.3116500  73.7646540  23.2607850
   7.3152560  73.3236490  22.4112390   8.2067620  74.0863870  23.3679670
   3.1618880  73.6473030  22.2202060   2.8218930  74.1248260  22.9769110
   2.3996200  73.1938150  21.8603160   7.3736650  74.7658620  16.2514610
   7.4949470  74.7245100  17.2000430   6.9885160  75.6282770  16.0961340
  11.3365020  72.5426020  24.2678300  11.3537760  72.9934670  25.1120150
  11.0880600  71.6431660  24.4811740   6.3858150  77.0759760  15.6497910
   5.8175050  76.6278010  15.0233820   7.0947150  77.4352540  15.1163060
  14.7635770  69.9558200  30.1064680  15.0881540  69.2247860  30.6322660
  14.7992280  69.6371840  29.2045670   7.6124470  77.8248320  25.0073260
   7.9794600  77.3506890  25.7534600   7.4229530  78.6989890  25.3481600
   5.4023840  76.8656960  27.3257470   5.0980910  77.7448940  27.5507830
   6.3570300  76.9256750  27.3614910  10.1503550  71.4621270  17.8580100
   9.3368160  70.9634440  17.7825410   9.9565500  72.3019520  17.4416450
  12.8651940  75.8340920  16.1542260  13.7531560  76.1458150  15.9793600
  12.8357030  74.9613170  15.7622840   4.6600690  78.1643940  31.3568380
   4.3600830  78.3101120  30.4596200   5.4311930  77.6049230  31.2641770
  15.1366210  77.1452760  15.6222120  15.0529930  77.5766980  14.7718560
  15.8560400  77.6051110  16.0548940   7.1330430  79.0924170  19.2171710
   7.5893210  79.9029420  19.4431900   6.7818640  78.7747310  20.0490200
   3.0342210  69.4361820  19.6894230   2.9056840  69.4279720  20.6379150
   2.2104230  69.7744910  19.3385240  11.5274920  73.6875250  26.9002380
  11.8955740  72.8670460  27.2281950  10.6673120  73.7477140  27.3158030
  14.8936950  72.6432190  17.7089940  14.2650110  72.7477860  16.9948170
  14.3988870  72.8628970  18.4983820   6.8620980  74.9218140  19.1247820
   6.1537130  75.3904480  19.5661430   7.1465460  74.2640150  19.7593010
   8.4876910  76.3414840  27.1240350   8.9862160  76.8160660  27.7892200
   8.6299860  75.4178360  27.3310380  10.8936410  71.6468800  20.5643610
  10.7704190  71.6654930  19.6153120  11.8420970  71.6947740  20.6842010
   5.0656000  73.2303220  16.4998530   5.9146530  73.6673370  16.4338720
   4.6987270  73.5423480  17.3270590  15.6943770  72.5582800  27.9668740
  15.1917370  73.2988200  28.3062550  16.5100430  72.9466800  27.6505530
  13.9865780  77.8015980  21.4130100  13.0455920  77.8166210  21.5877790
  14.3009850  77.0151940  21.8590400   3.9647420  79.4835580  14.9734060
   4.7310690  79.3716940  15.5359490   4.0422110  78.7873550  14.3210830
   2.6594180  76.9160650  15.6566950   2.7397770  75.9688160  15.7684350
   3.5513930  77.2467530  15.7627610   2.2188060  76.8805160  31.7873190
   2.2593400  76.5819030  32.6958420   3.0733560  77.2812770  31.6280710
   5.9966450  79.4800710  16.9476700   6.4182870  79.3140580  17.7908090
   6.1217290  78.6700940  16.4531840   4.1593870  75.4597260  29.7547680
   3.6290330  74.9688210  29.1271020   4.8281940  75.8881460  29.2205610
   8.5094090  78.5038320  14.1953800   9.0299750  77.7887340  13.8294950
   9.1562490  79.1424190  14.4954310  13.5294100  77.2662880  31.5228020
  14.1114870  76.5115200  31.4348500  13.7055870  77.7970320  30.7459500
   4.6466170  72.4259630  29.8344970   4.5523040  71.8080380  29.1095840
   4.0663560  73.1525920  29.6074880   7.4127610  70.9832870  26.8672360
   6.9644910  71.0057130  26.0217910   6.7792810  70.5851890  27.4642660
  10.1551060  77.6103380  28.8722640  10.2747270  77.0144520  29.6117480
  11.0145060  77.6473070  28.4523940  12.4938960  78.1640570  27.4485150
  11.9674180  78.6883190  26.8450290  12.8370300  78.7967960  28.0794880
   4.8925350  75.5533940  13.8934860   4.6914410  74.6901300  14.2548200
   4.7217400  75.4667300  12.9556460   6.9219830  74.1524730  30.1298460
   7.5119520  73.8440580  30.8176280   6.1040070  73.6804480  30.2858360
  11.7413260  73.7690540  30.3631480  11.0528780  73.1072080  30.2981470
  12.4619280  73.3228810  30.8079940  12.3713660  70.3642170  16.4221740
  12.6515950  69.5210070  16.7781160  11.5979390  70.5965280  16.9360490
   3.6908150  72.6534560  13.8812740   3.9934050  72.6601990  12.9731890
   4.4302740  72.3032420  14.3780400   6.9093080  71.5969180  14.8668940
   6.5615080  70.9193170  14.2871390   7.1105850  71.1358690  15.6812330
  13.1989160  72.9198120  15.4851800  13.6174040  72.7329100  14.6448460
  12.8925220  72.0677170  15.7954730  16.6978890  77.8322260  19.1827600
  16.3222490  77.0650190  18.7508890  15.9682010  78.2144960  19.6702530
  16.0878510  76.9793780  28.8167120  15.8564600  76.7506530  27.9165070
  16.3483060  77.8993330  28.7712010  14.5266580  72.2050210  31.5946820
  15.4036760  72.2133610  31.9780820  14.5387420  71.4681050  30.9839170
  15.9729850  76.0579750  22.4834840  16.4967330  75.5642400  21.8525010
  16.5589270  76.1930110  23.2282410  16.1519570  76.1419620  26.0054390
  15.2022280  76.1083160  26.1199380  16.3332580  77.0519730  25.7704160
  15.4629820  75.3153100  18.4227250  15.9588940  75.0823970  19.2076130
  15.2645890  74.4764940  18.0064890  16.8916980  73.9514050  20.9564930
  16.7816260  73.7970090  21.8947200  17.6524570  73.4234990  20.7140340
  15.2382700  69.8908180  27.4147930  15.8754920  70.5042320  27.7807120
  15.3857590  69.9268840  26.4697160  17.7807250  71.7821970  14.1971070
  18.7056560  71.6503150  13.9889360  17.7583040  71.8614790  15.1507520
  17.8545740  72.5532630  16.8227780  17.0597240  72.4877750  17.3520690
  18.0589020  73.4883270  16.8113130   8.6087180  71.0434370  30.3223030
   8.5476070  71.6356200  31.0718440   9.5487560  70.9360330  30.1773290
  11.2461740  70.7004430  29.9615320  11.8602150  71.0183720  29.2996400
  11.7911300  70.2153020  30.5811180   1.7683000  69.3798690  30.0754380
   2.3165990  69.1986740  29.3120490   1.8338310  68.5892800  30.6110690
  11.9869780  69.2636570  26.2884610  11.1129620  69.5971680  26.0857540
  11.8780530  68.7909750  27.1136480  12.8941760  71.4707440  27.6726330
  12.5655120  70.6559200  27.2928060  13.8424060  71.4277250  27.5492020
   9.7344600  70.1806410  25.2277520   8.9516390  70.6551910  25.5074280
   9.4407530  69.2761240  25.1190700  14.2865670  70.8829510  23.2726610
  14.7273760  70.8274610  22.4248210  14.0173260  71.7987520  23.3436790
  16.1504240  70.5144750  21.2835430  16.0892640  69.5705970  21.1366450
  16.9296270  70.6224840  21.8288890   7.6198820  72.5993160  20.7393550
   6.8073330  72.2250050  20.3989430   8.1240460  71.8438240  21.0414740
  12.1223800  69.2635610  21.9776620  12.7253170  69.8355820  22.4525140
  11.3816790  69.8275050  21.7550520  15.2658400  69.6657170  17.2516900
  15.4609030  70.5640620  17.5184330  14.4788270  69.4344250  17.7449850
   3.4510160  71.0117940  16.2893210   3.9802920  70.2247740  16.1601160
   4.0838480  71.6909130  16.5228740   5.6448000  70.7493080  19.3438600
   5.0150740  70.0480390  19.5108730   5.1053140  71.5097210  19.1271760
   5.7703560  70.0277060  31.7791090   5.4887830  70.5310660  31.0151910
   6.1523260  69.2298810  31.4133220  12.3719020  69.4430640  32.3571560
  12.2584470  69.7625250  33.2523080  13.1888760  69.8443150  32.0608840
  11.2777170  77.4623110   2.7206300  11.1971220  76.5477720   2.4498010
  10.8641590  77.9590180   2.0146010   9.4095210  79.2402130   4.6015570
   8.6337310  78.7602570   4.8914140  10.0608140  78.5607780   4.4271730
   3.4261040  79.5521940   5.4791330   2.5945920  79.2970650   5.8787840
   4.0342020  79.6232710   6.2149250   9.8809370  74.7229700   4.8354660
  10.2574190  73.8501580   4.7228330   9.7828880  75.0588400   3.9445100
  13.6633490  72.2180140   1.7683000  14.4843110  71.7276710   1.8108480
  13.6967570  72.8077800   2.5214840   5.8522110  76.0641700   4.6297280
   6.3600330  76.5622670   5.2702300   6.3835350  75.2876900   4.4536640
  17.9533040  74.2346890   8.3326630  17.2485210  74.6228600   7.8141740
  18.2190960  74.9297180   8.9347560   4.1358210  70.7040260   8.8960700
   4.1376650  71.2212650   8.0906600   3.3062520  70.2270440   8.8730630
  13.8994970  74.1580520   4.5410540  13.1950540  74.4465410   5.1213650
  14.2607130  74.9680630   4.1810100   3.8173540  72.4150220   6.9031150
   4.1590350  73.2592270   6.6085020   2.8789350  72.5633960   7.0196490
  16.9681890  73.6035310   4.9319750  16.0206800  73.6374290   5.0635180
  17.2931880  74.4174260   5.3169110   7.5001430  69.9032490   3.2275740
   7.8076410  69.3479380   2.5111240   6.5702130  70.0376950   3.0448730
  16.3964030  78.9216840   6.9382050  15.5682660  78.9909930   6.4632180
  16.9914510  79.5071150   6.4697880  13.3606040  75.7086160   7.8836920
  12.9477220  76.5339870   8.1376910  12.6281990  75.1231200   7.6913280
   5.4938830  78.4946060   2.7455590   5.0895830  77.7823310   2.2501490
   5.5801950  78.1499300   3.6343630   4.2067450  75.2689270   6.5254630
   4.7582040  75.3784610   5.7507880   4.7210960  75.6426870   7.2409860
   3.8810180  78.7908630  10.1359970   3.7417950  79.6631430  10.5047370
   2.9991540  78.4481440   9.9907910  16.8862610  74.7602740  11.7659040
  16.2706880  75.2682410  11.2374500  16.5659030  73.8601070  11.7084980
   4.6607120  70.7326110   3.6285910   4.2175270  71.5135650   3.2970430
   5.2192110  71.0556000   4.3356850   8.9476930  73.5994630   9.2321230
   8.4856300  73.8077650  10.0441170   8.5455040  72.7853980   8.9291900
  13.9481440  74.8203580  10.3617890  13.0975030  74.5209330  10.6826960
  13.7883230  75.0645590   9.4501710  11.0431150  76.3205330  12.4616680
  11.3684560  75.4869080  12.1218910  11.8311480  76.8433850  12.6095010
   6.6983020  71.2773440   5.4875510   6.9955350  72.1836270   5.4067530
   7.2468580  70.7892220   4.8735080   6.8920550  76.7545260  12.0227430
   6.7964150  75.8139990  11.8727830   7.7352530  76.9760330  11.6275500
   8.5976140  73.2493900  13.2457950   7.9074460  73.0566100  13.8804040
   9.3408440  73.5328540  13.7782250  10.8739110  77.0892340   6.0811870
  10.1420230  77.5979150   6.4301970  10.4763450  76.2722320   5.7800650
   7.3116500  73.7646540   4.4864360   7.3152560  73.3236490   3.6368900
   8.2067620  74.0863870   4.5936180   3.1618880  73.6473030   3.4458570
   2.8218930  74.1248260   4.2025620   2.3996200  73.1938150   3.0859670
  11.3365020  72.5426020   5.4934810  11.3537760  72.9934670   6.3376660
  11.0880600  71.6431660   5.7068250  14.7635770  69.9558200  11.3321190
  15.0881540  69.2247860  11.8579170  14.7992280  69.6371840  10.4302180
   7.6124470  77.8248320   6.2329770   7.9794600  77.3506890   6.9791110
   7.4229530  78.6989890   6.5738110   5.4023840  76.8656960   8.5513980
   5.0980910  77.7448940   8.7764340   6.3570300  76.9256750   8.5871420
   4.6600690  78.1643940  12.5824890   4.3600830  78.3101120  11.6852710
   5.4311930  77.6049230  12.4898280  11.5274920  73.6875250   8.1258890
  11.8955740  72.8670460   8.4538460  10.6673120  73.7477140   8.5414540
   8.4876910  76.3414840   8.3496860   8.9862160  76.8160660   9.0148710
   8.6299860  75.4178360   8.5566890  15.6943770  72.5582800   9.1925250
  15.1917370  73.2988200   9.5319060  16.5100430  72.9466800   8.8762040
  13.9865780  77.8015980   2.6386610  13.0455920  77.8166210   2.8134300
  14.3009850  77.0151940   3.0846910   2.2188060  76.8805160  13.0129700
   2.2593400  76.5819030  13.9214930   3.0733560  77.2812770  12.8537220
   4.1593870  75.4597260  10.9804190   3.6290330  74.9688210  10.3527530
   4.8281940  75.8881460  10.4462120  13.5294100  77.2662880  12.7484530
  14.1114870  76.5115200  12.6605010  13.7055870  77.7970320  11.9716010
   4.6466170  72.4259630  11.0601480   4.5523040  71.8080380  10.3352350
   4.0663560  73.1525920  10.8331390   7.4127610  70.9832870   8.0928870
   6.9644910  71.0057130   7.2474420   6.7792810  70.5851890   8.6899170
  10.1551060  77.6103380  10.0979150  10.2747270  77.0144520  10.8373990
  11.0145060  77.6473070   9.6780450  12.4938960  78.1640570   8.6741660
  11.9674180  78.6883190   8.0706800  12.8370300  78.7967960   9.3051390
   6.9219830  74.1524730  11.3554970   7.5119520  73.8440580  12.0432790
   6.1040070  73.6804480  11.5114870  11.7413260  73.7690540  11.5887990
  11.0528780  73.1072080  11.5237980  12.4619280  73.3228810  12.0336450
  16.0878510  76.9793780  10.0423630  15.8564600  76.7506530   9.1421580
  16.3483060  77.8993330   9.9968520  14.5266580  72.2050210  12.8203330
  15.4036760  72.2133610  13.2037330  14.5387420  71.4681050  12.2095680
  15.9729850  76.0579750   3.7091350  16.4967330  75.5642400   3.0781520
  16.5589270  76.1930110   4.4538920  16.1519570  76.1419620   7.2310900
  15.2022280  76.1083160   7.3455890  16.3332580  77.0519730   6.9960670
  16.8916980  73.9514050   2.1821440  16.7816260  73.7970090   3.1203710
  17.6524570  73.4234990   1.9396850  15.2382700  69.8908180   8.6404440
  15.8754920  70.5042320   9.0063630  15.3857590  69.9268840   7.6953670
   8.6087180  71.0434370  11.5479540   8.5476070  71.6356200  12.2974950
   9.5487560  70.9360330  11.4029800  11.2461740  70.7004430  11.1871830
  11.8602150  71.0183720  10.5252910  11.7911300  70.2153020  11.8067690
   1.7683000  69.3798690  11.3010890   2.3165990  69.1986740  10.5377000
   1.8338310  68.5892800  11.8367200  11.9869780  69.2636570   7.5141120
  11.1129620  69.5971680   7.3114050  11.8780530  68.7909750   8.3392990
  12.8941760  71.4707440   8.8982840  12.5655120  70.6559200   8.5184570
  13.8424060  71.4277250   8.7748530   9.7344600  70.1806410   6.4534030
   8.9516390  70.6551910   6.7330790   9.4407530  69.2761240   6.3447210
  14.2865670  70.8829510   4.4983120  14.7273760  70.8274610   3.6504720
  14.0173260  71.7987520   4.5693300  16.1504240  70.5144750   2.5091940
  16.0892640  69.5705970   2.3622960  16.9296270  70.6224840   3.0545400
  12.1223800  69.2635610   3.2033130  12.7253170  69.8355820   3.6781650
  11.3816790  69.8275050   2.9807030   5.7703560  70.0277060  13.0047600
   5.4887830  70.5310660  12.2408420   6.1523260  69.2298810  12.6389730
  12.3719020  69.4430640  13.5828070  12.2584470  69.7625250  14.4779590
  13.1888760  69.8443150  13.2865350  11.2777170  58.6879620  59.0436770
  11.1971220  57.7734230  58.7728480  10.8641590  59.1846690  58.3376480
   9.4095210  60.4658640  60.9246040   8.6337310  59.9859080  61.2144610
  10.0608140  59.7864290  60.7502200   3.4261040  60.7778450  61.8021800
   2.5945920  60.5227160  62.2018310   4.0342020  60.8489220  62.5379720
  13.4302640  64.8718830  59.7045170  12.9684170  64.1006070  60.0332340
  14.2428190  64.8984900  60.2097620   3.4062300  64.8118540  61.9979820
   3.7090340  63.9216280  61.8190040   4.1505890  65.3688760  61.7702070
   9.6565950  67.1576840  59.3249160   9.0377390  67.6134340  58.7543600
  10.5117730  67.3128300  58.9238860   8.8504200  63.1415830  60.9316200
   8.7812480  62.2005770  60.7705330   9.6124060  63.2317240  61.5038770
   9.8809370  55.9486210  61.1585130  10.2574190  55.0758090  61.0458800
   9.7828880  56.2844910  60.2675570   4.0114380  54.3211840  56.6202570
   4.1181130  55.2215570  56.9271330   3.1006740  54.2729810  56.3297220
  13.6633490  53.4436650  58.0913470  14.4843110  52.9533220  58.1338950
  13.6967570  54.0334310  58.8445310   5.8522110  57.2898210  60.9527750
   6.3600330  57.7879180  61.5932770   6.3835350  56.5133410  60.7767110
  10.5229300  62.0416080  56.7181070   9.9046570  62.5065530  56.1543790
  11.0352550  62.7343560  57.1350580  13.8994970  55.3837030  60.8641010
  13.1950540  55.6721920  61.4444120  14.2607130  56.1937140  60.5040570
  15.5157750  65.0012160  63.1268490  14.8321270  65.6711270  63.1185160
  16.0552040  65.1992810  62.3613350  16.9681890  54.8291820  61.2550220
  16.0206800  54.8630800  61.3865650  17.2931880  55.6430770  61.6399580
   7.5001430  51.1289000  59.5506210   7.8076410  50.5735890  58.8341710
   6.5702130  51.2633460  59.3679200  13.0516490  66.8456290  61.8413670
  13.0643650  66.4418580  60.9735930  12.4991710  67.6203580  61.7375100
  14.3461910  63.5672510  56.9303840  14.2358240  62.6246840  57.0553260
  14.3430160  63.9288150  57.8166600   9.8882190  59.1937830  56.2866330
   8.9611470  59.1275210  56.5154800  10.0407010  60.1317960  56.1721570
   9.8751270  55.4654830  53.2833490   8.9354940  55.6268790  53.3685950
  10.1934530  56.1840510  52.7369480  16.3964030  60.1473350  63.2612520
  15.5682660  60.2166440  62.7862650  16.9914510  60.7327660  62.7928350
  13.9179480  60.7558130  56.7901580  13.2991900  60.4177680  56.1427880
  13.9003930  60.1117890  57.4980770   5.4938830  59.7202570  59.0686060
   5.0895830  59.0079820  58.5731960   5.5801950  59.3755810  59.9574100
   5.9620530  63.4070130  61.2325270   5.6648820  62.8015600  60.5533050
   6.9120350  63.4447440  61.1214630  12.0944180  59.9944940  53.7974330
  12.5337460  59.1567370  53.6512150  12.8072600  60.6274340  53.8838470
  10.2039560  64.9341010  57.7655570  10.6435470  65.6765340  57.3510960
  10.1426450  65.1767580  58.6894530  15.6761320  51.2487750  52.1115370
  15.3633980  51.3414580  53.0114440  16.4373790  51.8268780  52.0612800
   2.1943460  58.6147550  56.5692710   2.0741060  59.3409640  55.9573980
   1.8844350  57.8450460  56.0920620  12.8709740  67.9210130  55.1218580
  12.7110880  67.6313070  56.0200410  12.7056450  67.1450260  54.5863810
   5.3498120  67.7008660  56.8990200   5.1740600  66.7844200  56.6858000
   4.4953860  68.0595950  57.1388000  12.5735870  65.4297690  53.6816580
  11.8801030  65.4274980  53.0218860  13.3158730  65.0057010  53.2510750
  12.1385800  67.0560400  57.7565070  12.5942750  66.2749780  58.0703690
  12.4778320  67.7667220  58.3006250   4.6607120  51.9582620  59.9516380
   4.2175270  52.7392160  59.6200900   5.2192110  52.2812510  60.6587320
   7.7765940  51.5793320  54.8322210   7.1520120  51.5753190  55.5575520
   7.6896060  50.7124280  54.4358180   6.6983020  52.5029950  61.8105980
   6.9955350  53.4092780  61.7298000   7.2468580  52.0148730  61.1965550
   4.4521340  57.0816190  57.6797630   4.2262260  56.8653360  58.5844250
   3.6713870  57.5144650  57.3343600  11.6819100  57.0879560  56.2788280
  11.0827990  57.8115360  56.0951900  12.2298710  57.0256340  55.4964730
  10.2883970  55.7243100  58.3091560  10.6813540  56.0415300  57.4960250
  10.6500820  54.8454980  58.4236080  10.8739110  58.3148850  62.4042340
  10.1420230  58.8235660  62.7532440  10.4763450  57.4978830  62.1031120
   7.3116500  54.9903050  60.8094830   7.3152560  54.5493000  59.9599370
   8.2067620  55.3120380  60.9166650   3.1618880  54.8729540  59.7689040
   2.8218930  55.3504770  60.5256090   2.3996200  54.4194660  59.4090140
   7.3736650  55.9915130  53.8001590   7.4949470  55.9501610  54.7487410
   6.9885160  56.8539280  53.6448320  11.3365020  53.7682530  61.8165280
  11.3537760  54.2191180  62.6607130  11.0880600  52.8688170  62.0298720
   6.3858150  58.3016270  53.1984890   5.8175050  57.8534520  52.5720800
   7.0947150  58.6609050  52.6650040   3.9305630  62.2974460  55.4711300
   3.1567890  61.7572080  55.3110020   4.6600260  61.7781070  55.1329060
  14.6893610  61.2939820  61.2637690  15.4092730  61.7895110  60.8733800
  14.4875430  60.6157710  60.6191560  10.1503550  52.6877780  55.4067080
   9.3368160  52.1890950  55.3312390   9.9565500  53.5276030  54.9903430
  12.8651940  57.0597430  53.7029240  13.7531560  57.3714660  53.5280580
  12.8357030  56.1869680  53.3109820   3.9743030  61.9654840  59.1090110
   4.4921700  61.1623100  59.0547000   3.5227050  61.9033980  59.9506940
   8.8612530  63.2321120  54.3817410   9.2028230  63.9763350  53.8860730
   8.0325240  63.5452240  54.7442240  15.1366210  58.3709270  53.1709100
  15.0529930  58.8023490  52.3205540  15.8560400  58.8307620  53.6035920
  16.1653460  65.2251530  55.8991230  15.5229620  64.5707150  56.1734950
  15.7784120  65.6306620  55.1231900  11.7439940  62.5536960  59.7462920
  12.0963760  61.9565090  59.0864290  10.8602270  62.2281190  59.9171170
   7.8303220  63.3134650  57.1533330   8.5174350  63.8603860  57.5340920
   7.0435640  63.8575380  57.1882940   7.1330430  60.3180680  56.7658690
   7.5893210  61.1285930  56.9918880   6.7818640  60.0003820  57.5977180
   3.0342210  50.6618330  57.2381210   2.9056840  50.6536230  58.1866130
   2.2104230  51.0001420  56.8872220  10.7095120  63.8319370  62.7128440
  11.3517350  63.1312530  62.8260610  11.2344470  64.6117810  62.5325330
  14.5550840  64.1167990  52.4367580  14.3288420  63.3998430  53.0292220
  14.1647040  63.8680430  51.5989330  14.1367090  62.0339930  54.0981740
  13.8488790  62.4952620  54.8859620  14.9319260  61.5737700  54.3665960
   6.3535490  65.5266050  54.0285710   6.3445590  66.2595740  53.4130220
   5.4333850  65.2797630  54.1212670  14.8936950  53.8688700  55.2576920
  14.2650110  53.9734370  54.5435150  14.3988870  54.0885480  56.0470800
   9.3395090  65.5894290  52.6910900   9.4407070  65.3858280  51.7612880
   8.4396830  65.3352570  52.8958680   6.8620980  56.1474650  56.6734800
   6.1537130  56.6160990  57.1148410   7.1465460  55.4896660  57.3079990
  10.8936410  52.8725310  58.1130590  10.7704190  52.8911440  57.1640100
  11.8420970  52.9204250  58.2328990   7.9813200  68.1080610  57.3858570
   8.2354700  68.0702000  56.4637940   7.0325680  67.9813940  57.3786820
   5.0656000  54.4559730  54.0485510   5.9146530  54.8929880  53.9825700
   4.6987270  54.7679990  54.8757570  13.9865780  59.0272490  58.9617080
  13.0455920  59.0422720  59.1364770  14.3009850  58.2408450  59.4077380
   3.9647420  60.7092090  52.5221040   4.7310690  60.5973450  53.0846470
   4.0422110  60.0130060  51.8697810   2.6594180  58.1417160  53.2053930
   2.7397770  57.1944670  53.3171330   3.5513930  58.4724040  53.3114590
  15.9891360  66.1981340  60.6371340  16.1138780  67.0212510  61.1095150
  16.8556920  65.9872070  60.2895490   3.4608890  68.2912550  60.3088470
   4.1971370  67.7428010  60.5797040   3.8449810  69.1568560  60.1694460
   6.5711200  67.4642860  52.1314040   7.3639810  67.7531690  51.6795830
   6.0515550  67.0335030  51.4526520  15.6241370  66.6912990  53.5550780
  15.3382880  66.2778130  52.7404960  15.4260920  67.6200700  53.4351300
   7.0888600  62.6846270  51.9956390   6.9839240  62.0698620  52.7217770
   6.9212820  62.1612160  51.2119400  10.3291330  61.7466300  52.5998380
   9.7801430  62.1935600  53.2441120  10.9510590  61.2415550  53.1236050
   5.9966450  60.7057220  54.4963680   6.4182870  60.5397090  55.3395070
   6.1217290  59.8957450  54.0018820   8.5094090  59.7294830  51.7440780
   9.0299750  59.0143850  51.3781930   9.1562490  60.3680700  52.0441290
   4.8925350  56.7790450  51.4421840   4.6914410  55.9157810  51.8035180
   4.7217400  56.6923810  50.5043440  12.3713660  51.5898680  53.9708720
  12.6515950  50.7466580  54.3268140  11.5979390  51.8221790  54.4847470
   3.6908150  53.8791070  51.4299720   3.9934050  53.8858500  50.5218870
   4.4302740  53.5288930  51.9267380   6.9093080  52.8225690  52.4155920
   6.5615080  52.1449680  51.8358370   7.1105850  52.3615200  53.2299310
   9.0742120  67.8106440  54.0342520   9.9692910  68.1491410  54.0561280
   9.1059750  67.0885850  53.4066800   2.7138280  63.1833490  52.2629520
   3.1513150  63.7263160  52.9187100   3.1986010  62.3580440  52.2725860
   4.5246000  64.3031530  57.3751750   4.2241540  64.1796500  58.2755660
   4.4183490  63.4440120  56.9667480  17.2937920  64.0827930  52.0778430
  16.4630880  64.1504580  52.5485660  17.4709750  64.9732050  51.7745290
  16.7494380  60.8275410  54.5812630  17.5113290  61.3972060  54.6872320
  16.7648750  60.2602610  55.3520940  17.7554350  61.6825510  59.4254560
  18.1263180  60.8992830  59.0190530  18.3956280  62.3714610  59.2471860
  16.8013550  61.1209780  51.7385150  17.0762390  62.0288660  51.6104370
  16.6124290  61.0572310  52.6747140  13.1989160  54.1454630  53.0338780
  13.6174040  53.9585610  52.1935440  12.8925220  53.2933680  53.3441710
  16.6978890  59.0578770  56.7314580  16.3222490  58.2906700  56.2995870
  15.9682010  59.4401470  57.2189510  15.9729850  57.2836260  60.0321820
  16.4967330  56.7898910  59.4011990  16.5589270  57.4186620  60.7769390
  15.4629820  56.5409610  55.9714230  15.9588940  56.3080480  56.7563110
  15.2645890  55.7021450  55.5551870  16.8916980  55.1770560  58.5051910
  16.7816260  55.0226600  59.4434180  17.6524570  54.6491500  58.2627320
  17.7807250  53.0078480  51.7458050  18.7056560  52.8759660  51.5376340
  17.7583040  53.0871300  52.6994500  17.8545740  53.7789140  54.3714760
  17.0597240  53.7134260  54.9007670  18.0589020  54.7139780  54.3600110
  14.7964160  67.8180690  58.3653150  15.3923230  67.4965260  57.6887570
  15.0542310  67.3452510  59.1566420  15.3476370  68.4675990  62.1950880
  14.8879340  69.2191800  61.8208900  14.7188830  67.7482460  62.1365680
   5.7772090  66.7764230  61.3699010   6.2937110  66.1651590  60.8447270
   6.4269470  67.2793010  61.8610020   8.5167590  67.6672720  62.1967990
   8.8045400  67.4127020  61.3201000   9.0290810  67.1150080  62.7873560
   9.7344600  51.4062920  62.7764500   8.9516390  51.8808420  63.0561260
   9.4407530  50.5017750  62.6677680  14.2865670  52.1086020  60.8213590
  14.7273760  52.0531120  59.9735190  14.0173260  53.0244030  60.8923770
  16.1504240  51.7401260  58.8322410  16.0892640  50.7962480  58.6853430
  16.9296270  51.8481350  59.3775870   7.6198820  53.8249670  58.2880530
   6.8073330  53.4506560  57.9476410   8.1240460  53.0694750  58.5901720
  12.1223800  50.4892120  59.5263600  12.7253170  51.0612330  60.0012120
  11.3816790  51.0531560  59.3037500  15.2658400  50.8913680  54.8003880
  15.4609030  51.7897130  55.0671310  14.4788270  50.6600760  55.2936830
   3.4510160  52.2374450  53.8380190   3.9802920  51.4504250  53.7088140
   4.0838480  52.9165640  54.0715720   5.6448000  51.9749590  56.8925580
   5.0150740  51.2736900  57.0595710   5.1053140  52.7353720  56.6758740
  16.8185010  68.1314390  56.5610440  16.9937200  67.4452130  55.9171360
  16.1206580  68.6561440  56.1687110   4.6612660  68.5209230  54.1145750
   5.3931480  68.2368510  53.5669640   4.9206330  68.2822510  55.0045130
   3.8227450  64.6373960  54.1192080   3.1936330  65.1059060  54.6677910
   3.9375280  63.7923180  54.5538270  11.2777170  58.6879620  40.2693280
  11.1971220  57.7734230  39.9984990  10.8641590  59.1846690  39.5632990
   9.4095210  60.4658640  42.1502550   8.6337310  59.9859080  42.4401120
  10.0608140  59.7864290  41.9758710   3.4261040  60.7778450  43.0278310
   2.5945920  60.5227160  43.4274820   4.0342020  60.8489220  43.7636230
  13.4302640  64.8718830  40.9301680  12.9684170  64.1006070  41.2588850
  14.2428190  64.8984900  41.4354130   3.4062300  64.8118540  43.2236330
   3.7090340  63.9216280  43.0446550   4.1505890  65.3688760  42.9958580
   9.6565950  67.1576840  40.5505670   9.0377390  67.6134340  39.9800110
  10.5117730  67.3128300  40.1495370   8.8504200  63.1415830  42.1572710
   8.7812480  62.2005770  41.9961840   9.6124060  63.2317240  42.7295280
   9.8809370  55.9486210  42.3841640  10.2574190  55.0758090  42.2715310
   9.7828880  56.2844910  41.4932080   4.0114380  54.3211840  37.8459080
   4.1181130  55.2215570  38.1527840   3.1006740  54.2729810  37.5553730
  13.6633490  53.4436650  39.3169980  14.4843110  52.9533220  39.3595460
  13.6967570  54.0334310  40.0701820   5.8522110  57.2898210  42.1784260
   6.3600330  57.7879180  42.8189280   6.3835350  56.5133410  42.0023620
  17.9533040  55.4603400  45.8813610  17.2485210  55.8485110  45.3628720
  18.2190960  56.1553690  46.4834540   4.1358210  51.9296770  46.4447680
   4.1376650  52.4469160  45.6393580   3.3062520  51.4526950  46.4217610
  10.5229300  62.0416080  37.9437580   9.9046570  62.5065530  37.3800300
  11.0352550  62.7343560  38.3607090   5.3861060  61.5691950  44.6221180
   5.0530440  62.1960870  45.2642250   5.5627740  62.0953830  43.8422850
  13.8994970  55.3837030  42.0897520  13.1950540  55.6721920  42.6700630
  14.2607130  56.1937140  41.7297080   3.8173540  53.6406730  44.4518130
   4.1590350  54.4848780  44.1572000   2.8789350  53.7890470  44.5683470
   4.5980160  63.5372750  46.4370360   5.2154160  64.2123830  46.1554810
   3.7373280  63.9460730  46.3457860  15.5157750  65.0012160  44.3525000
  14.8321270  65.6711270  44.3441670  16.0552040  65.1992810  43.5869860
  16.9681890  54.8291820  42.4806730  16.0206800  54.8630800  42.6122160
  17.2931880  55.6430770  42.8656090   7.5001430  51.1289000  40.7762720
   7.8076410  50.5735890  40.0598220   6.5702130  51.2633460  40.5935710
  13.0516490  66.8456290  43.0670180  13.0643650  66.4418580  42.1992440
  12.4991710  67.6203580  42.9631610  14.3461910  63.5672510  38.1560350
  14.2358240  62.6246840  38.2809770  14.3430160  63.9288150  39.0423110
  12.4501930  61.7486130  44.3952790  12.8670720  61.5346240  43.5606250
  13.1741750  62.0058920  44.9661410   9.8882190  59.1937830  37.5122840
   8.9611470  59.1275210  37.7411310  10.0407010  60.1317960  37.3978080
   9.8751270  55.4654830  34.5090000   8.9354940  55.6268790  34.5942460
  10.1934530  56.1840510  33.9625990  16.3964030  60.1473350  44.4869030
  15.5682660  60.2166440  44.0119160  16.9914510  60.7327660  44.0184860
  13.9179480  60.7558130  38.0158090  13.2991900  60.4177680  37.3684390
  13.9003930  60.1117890  38.7237280  13.3606040  56.9342670  45.4323900
  12.9477220  57.7596380  45.6863890  12.6281990  56.3487710  45.2400260
   5.4938830  59.7202570  40.2942570   5.0895830  59.0079820  39.7988470
   5.5801950  59.3755810  41.1830610   5.9620530  63.4070130  42.4581780
   5.6648820  62.8015600  41.7789560   6.9120350  63.4447440  42.3471140
   4.2067450  56.4945780  44.0741610   4.7582040  56.6041120  43.2994860
   4.7210960  56.8683380  44.7896840  14.0506140  66.9802000  46.1204880
  13.5736700  67.7874190  45.9277490  13.3667930  66.3280330  46.2731090
   5.0538960  63.1451820  49.1089580   4.1567490  63.3691790  49.3562980
   5.0791830  63.2686760  48.1600980  12.0944180  59.9944940  35.0230840
  12.5337460  59.1567370  34.8768660  12.8072600  60.6274340  35.1094980
   3.8810180  60.0165140  47.6846950   3.7417950  60.8887940  48.0534350
   2.9991540  59.6737950  47.5394890  10.2039560  64.9341010  38.9912080
  10.6435470  65.6765340  38.5767470  10.1426450  65.1767580  39.9151040
   5.6790530  65.9586840  49.8932100   5.6505960  66.3629790  49.0260530
   5.5155500  65.0297200  49.7303700  15.6761320  51.2487750  33.3371880
  15.3633980  51.3414580  34.2370950  16.4373790  51.8268780  33.2869310
   2.1943460  58.6147550  37.7949220   2.0741060  59.3409640  37.1830490
   1.8844350  57.8450460  37.3177130  17.6305350  66.7413940  51.1896270
  18.1065070  67.2196830  51.8685350  18.2512510  66.6731430  50.4641770
  17.0338600  63.9326790  48.3496280  17.1601660  63.6938670  47.4313460
  17.0759980  63.1011330  48.8218360  10.8955340  67.6354790  46.9191090
  11.4100010  67.5462800  47.7213520  10.0524420  67.9814490  47.2119000
  12.8709740  67.9210130  36.3475090  12.7110880  67.6313070  37.2456920
  12.7056450  67.1450260  35.8120320   5.3498120  67.7008660  38.1246710
   5.1740600  66.7844200  37.9114510   4.4953860  68.0595950  38.3644510
  12.5735870  65.4297690  34.9073090  11.8801030  65.4274980  34.2475370
  13.3158730  65.0057010  34.4767260  12.1385800  67.0560400  38.9821580
  12.5942750  66.2749780  39.2960200  12.4778320  67.7667220  39.5262760
  16.8862610  55.9859250  49.3146020  16.2706880  56.4938920  48.7861480
  16.5659030  55.0857580  49.2571960   4.6607120  51.9582620  41.1772890
   4.2175270  52.7392160  40.8457410   5.2192110  52.2812510  41.8843830
   8.9476930  54.8251140  46.7808210   8.4856300  55.0334160  47.5928150
   8.5455040  54.0110490  46.4778880  13.9481440  56.0460090  47.9104870
  13.0975030  55.7465840  48.2313940  13.7883230  56.2902100  46.9988690
  11.0431150  57.5461840  50.0103660  11.3684560  56.7125590  49.6705890
  11.8311480  58.0690360  50.1581990   7.7765940  51.5793320  36.0578720
   7.1520120  51.5753190  36.7832030   7.6896060  50.7124280  35.6614690
   6.6983020  52.5029950  43.0362490   6.9955350  53.4092780  42.9554510
   7.2468580  52.0148730  42.4222060   4.4521340  57.0816190  38.9054140
   4.2262260  56.8653360  39.8100760   3.6713870  57.5144650  38.5600110
  11.6819100  57.0879560  37.5044790  11.0827990  57.8115360  37.3208410
  12.2298710  57.0256340  36.7221240   6.8920550  57.9801770  49.5714410
   6.7964150  57.0396500  49.4214810   7.7352530  58.2016840  49.1762480
  10.2883970  55.7243100  39.5348070  10.6813540  56.0415300  38.7216760
  10.6500820  54.8454980  39.6492590   8.5976140  54.4750410  50.7944930
   7.9074460  54.2822610  51.4291020   9.3408440  54.7585050  51.3269230
  10.8739110  58.3148850  43.6298850  10.1420230  58.8235660  43.9788950
  10.4763450  57.4978830  43.3287630   7.3116500  54.9903050  42.0351340
   7.3152560  54.5493000  41.1855880   8.2067620  55.3120380  42.1423160
   3.1618880  54.8729540  40.9945550   2.8218930  55.3504770  41.7512600
   2.3996200  54.4194660  40.6346650   7.3736650  55.9915130  35.0258100
   7.4949470  55.9501610  35.9743920   6.9885160  56.8539280  34.8704830
  11.3365020  53.7682530  43.0421790  11.3537760  54.2191180  43.8863640
  11.0880600  52.8688170  43.2555230   6.3858150  58.3016270  34.4241400
   5.8175050  57.8534520  33.7977310   7.0947150  58.6609050  33.8906550
  14.7635770  51.1814710  48.8808170  15.0881540  50.4504370  49.4066150
  14.7992280  50.8628350  47.9789160   7.6124470  59.0504830  43.7816750
   7.9794600  58.5763400  44.5278090   7.4229530  59.9246400  44.1225090
   5.4023840  58.0913470  46.1000960   5.0980910  58.9705450  46.3251320
   6.3570300  58.1513260  46.1358400   3.9305630  62.2974460  36.6967810
   3.1567890  61.7572080  36.5366530   4.6600260  61.7781070  36.3585570
  14.6893610  61.2939820  42.4894200  15.4092730  61.7895110  42.0990310
  14.4875430  60.6157710  41.8448070  10.1503550  52.6877780  36.6323590
   9.3368160  52.1890950  36.5568900   9.9565500  53.5276030  36.2159940
  10.0712410  61.3648880  48.3763200  10.0049720  60.4444550  48.1220790
   9.4417550  61.4624320  49.0907840  12.8651940  57.0597430  34.9285750
  13.7531560  57.3714660  34.7537090  12.8357030  56.1869680  34.5366330
   3.9743030  61.9654840  40.3346620   4.4921700  61.1623100  40.2803510
   3.5227050  61.9033980  41.1763450   8.8612530  63.2321120  35.6073920
   9.2028230  63.9763350  35.1117240   8.0325240  63.5452240  35.9698750
   4.6600690  59.3900450  50.1311870   4.3600830  59.5357630  49.2339690
   5.4311930  58.8305740  50.0385260  10.0029140  64.1869450  48.1267000
  10.0173680  63.2550410  47.9085910   9.2954240  64.2729210  48.7656770
  15.1366210  58.3709270  34.3965610  15.0529930  58.8023490  33.5462050
  15.8560400  58.8307620  34.8292430  16.2140350  60.8276790  47.4735580
  15.4888540  61.4205570  47.2764970  16.7415810  60.8200330  46.6748950
  16.1653460  65.2251530  37.1247740  15.5229620  64.5707150  37.3991460
  15.7784120  65.6306620  36.3488410  11.7439940  62.5536960  40.9719430
  12.0963760  61.9565090  40.3120800  10.8602270  62.2281190  41.1427680
   7.8303220  63.3134650  38.3789840   8.5174350  63.8603860  38.7597430
   7.0435640  63.8575380  38.4139450   7.1330430  60.3180680  37.9915200
   7.5893210  61.1285930  38.2175390   6.7818640  60.0003820  38.8233690
   9.4363040  65.8287020  45.2207500  10.0805260  66.0346400  45.8980920
   9.7992480  65.0675420  44.7678350   3.0342210  50.6618330  38.4637720
   2.9056840  50.6536230  39.4122640   2.2104230  51.0001420  38.1128730
  10.7095120  63.8319370  43.9384950  11.3517350  63.1312530  44.0517120
  11.2344470  64.6117810  43.7581840  14.5550840  64.1167990  33.6624090
  14.3288420  63.3998430  34.2548730  14.1647040  63.8680430  32.8245840
  12.4832740  64.6314270  47.1421010  12.8188980  65.2180960  47.8198930
  11.5633080  64.5006980  47.3718800  14.1367090  62.0339930  35.3238250
  13.8488790  62.4952620  36.1116130  14.9319260  61.5737700  35.5922470
   8.3121320  64.6805600  50.3109070   7.9918190  63.9614840  50.8554760
   7.6379680  65.3560670  50.3845130   6.3535490  65.5266050  35.2542220
   6.3445590  66.2595740  34.6386730   5.4333850  65.2797630  35.3469180
  11.5274920  54.9131760  45.6745870  11.8955740  54.0926970  46.0025440
  10.6673120  54.9733650  46.0901520  14.8936950  53.8688700  36.4833430
  14.2650110  53.9734370  35.7691660  14.3988870  54.0885480  37.2727310
   9.3395090  65.5894290  33.9167410   9.4407070  65.3858280  32.9869390
   8.4396830  65.3352570  34.1215190   6.8620980  56.1474650  37.8991310
   6.1537130  56.6160990  38.3404920   7.1465460  55.4896660  38.5336500
   8.4876910  57.5671350  45.8983840   8.9862160  58.0417170  46.5635690
   8.6299860  56.6434870  46.1053870  10.8936410  52.8725310  39.3387100
  10.7704190  52.8911440  38.3896610  11.8420970  52.9204250  39.4585500
   7.9813200  68.1080610  38.6115080   8.2354700  68.0702000  37.6894450
   7.0325680  67.9813940  38.6043330   5.0656000  54.4559730  35.2742020
   5.9146530  54.8929880  35.2082210   4.6987270  54.7679990  36.1014080
  15.6943770  53.7839310  46.7412230  15.1917370  54.5244710  47.0806040
  16.5100430  54.1723310  46.4249020  13.9865780  59.0272490  40.1873590
  13.0455920  59.0422720  40.3621280  14.3009850  58.2408450  40.6333890
   3.9647420  60.7092090  33.7477550   4.7310690  60.5973450  34.3102980
   4.0422110  60.0130060  33.0954320   2.6594180  58.1417160  34.4310440
   2.7397770  57.1944670  34.5427840   3.5513930  58.4724040  34.5371100
  15.9891360  66.1981340  41.8627850  16.1138780  67.0212510  42.3351660
  16.8556920  65.9872070  41.5152000   3.4608890  68.2912550  41.5344980
   4.1971370  67.7428010  41.8053550   3.8449810  69.1568560  41.3950970
   2.4667170  67.4758620  50.7230560   3.2679900  67.7970670  51.1365960
   1.9518990  67.1154200  51.4450470   6.5711200  67.4642860  33.3570550
   7.3639810  67.7531690  32.9052340   6.0515550  67.0335030  32.6783030
  11.3031800  63.5838490  50.6705970  10.6969960  63.6070090  49.9301720
  10.9985910  62.8521530  51.2073220  12.7332170  67.3118780  49.2815380
  13.6853920  67.2276800  49.2315620  12.5860390  67.9760490  49.9549170
  15.6241370  66.6912990  34.7807290  15.3382880  66.2778130  33.9661470
  15.4260920  67.6200700  34.6607810   7.0888600  62.6846270  33.2212900
   6.9839240  62.0698620  33.9474280   6.9212820  62.1612160  32.4375910
   7.2402920  61.3703070  49.2002130   6.4748590  61.9388070  49.1156800
   7.4218880  61.0779280  48.3070360  10.3291330  61.7466300  33.8254890
   9.7801430  62.1935600  34.4697630  10.9510590  61.2415550  34.3492560
  14.3826270  63.1008400  49.7577150  15.1235740  63.4384160  49.2544610
  13.6198950  63.2700460  49.2046920   2.2188060  58.1061670  50.5616680
   2.2593400  57.8075540  51.4701910   3.0733560  58.5069280  50.4024200
   5.9966450  60.7057220  35.7220190   6.4182870  60.5397090  36.5651580
   6.1217290  59.8957450  35.2275330   4.1593870  56.6853770  48.5291170
   3.6290330  56.1944720  47.9014510   4.8281940  57.1137970  47.9949100
   8.5094090  59.7294830  32.9697290   9.0299750  59.0143850  32.6038440
   9.1562490  60.3680700  33.2697800  13.0571930  61.1523230  48.2932360
  13.4712950  61.3068310  49.1422780  12.1222930  61.2778450  48.4558140
  13.5294100  58.4919390  50.2971510  14.1114870  57.7371710  50.2091990
  13.7055870  59.0226830  49.5202990   4.6466170  53.6516140  48.6088460
   4.5523040  53.0336890  47.8839330   4.0663560  54.3782430  48.3818370
   7.4127610  52.2089380  45.6415850   6.9644910  52.2313640  44.7961400
   6.7792810  51.8108400  46.2386150   7.8187160  61.1043710  46.2628290
   8.2375270  61.9476440  46.0904530   6.8995790  61.2415750  46.0335070
  10.1551060  58.8359890  47.6466130  10.2747270  58.2401030  48.3860970
  11.0145060  58.8729580  47.2267430  12.4938960  59.3897080  46.2228640
  11.9674180  59.9139700  45.6193780  12.8370300  60.0224470  46.8538370
   4.8925350  56.7790450  32.6678350   4.6914410  55.9157810  33.0291690
   4.7217400  56.6923810  31.7299950   5.6694580  67.4096720  47.3786020
   5.1315670  68.1342780  47.0594720   5.9228540  66.9327060  46.5883360
   6.9219830  55.3781240  48.9041950   7.5119520  55.0697090  49.5919770
   6.1040070  54.9060990  49.0601850  11.7413260  54.9947050  49.1374970
  11.0528780  54.3328590  49.0724960  12.4619280  54.5485320  49.5823430
  12.3713660  51.5898680  35.1965230  12.6515950  50.7466580  35.5524650
  11.5979390  51.8221790  35.7103980   3.6908150  53.8791070  32.6556230
   3.9934050  53.8858500  31.7475380   4.4302740  53.5288930  33.1523890
   8.5256790  68.6447930  47.6372670   8.4515490  69.5483070  47.9445040
   7.6235630  68.3259830  47.6094740   6.9093080  52.8225690  33.6412430
   6.5615080  52.1449680  33.0614880   7.1105850  52.3615200  34.4555820
   9.0742120  67.8106440  35.2599030   9.9692910  68.1491410  35.2817790
   9.1059750  67.0885850  34.6323310   2.7138280  63.1833490  33.4886030
   3.1513150  63.7263160  34.1443610   3.1986010  62.3580440  33.4982370
   4.5246000  64.3031530  38.6008260   4.2241540  64.1796500  39.5012170
   4.4183490  63.4440120  38.1923990  16.0536470  66.3410110  47.9665230
  15.4538460  66.4002670  47.2229150  16.1830370  65.4015090  48.0962080
  17.2937920  64.0827930  33.3034940  16.4630880  64.1504580  33.7742170
  17.4709750  64.9732050  33.0001800  16.7494380  60.8275410  35.8069140
  17.5113290  61.3972060  35.9128830  16.7648750  60.2602610  36.5777450
  17.7554350  61.6825510  40.6511070  18.1263180  60.8992830  40.2447040
  18.3956280  62.3714610  40.4728370  14.7388110  63.0662090  46.0641390
  13.9247950  63.4959250  46.3267180  15.1462310  63.6780500  45.4510440
  16.8013550  61.1209780  32.9641660  17.0762390  62.0288660  32.8360880
  16.6124290  61.0572310  33.9003650  13.1989160  54.1454630  34.2595290
  13.6174040  53.9585610  33.4191950  12.8925220  53.2933680  34.5698220
  16.6978890  59.0578770  37.9571090  16.3222490  58.2906700  37.5252380
  15.9682010  59.4401470  38.4446020  16.0878510  58.2050290  47.5910610
  15.8564600  57.9763040  46.6908560  16.3483060  59.1249840  47.5455500
  14.5266580  53.4306720  50.3690310  15.4036760  53.4390120  50.7524310
  14.5387420  52.6937560  49.7582660  15.9729850  57.2836260  41.2578330
  16.4967330  56.7898910  40.6268500  16.5589270  57.4186620  42.0025900
  16.1519570  57.3676130  44.7797880  15.2022280  57.3339670  44.8942870
  16.3332580  58.2776240  44.5447650  15.4629820  56.5409610  37.1970740
  15.9588940  56.3080480  37.9819620  15.2645890  55.7021450  36.7808380
  16.8916980  55.1770560  39.7308420  16.7816260  55.0226600  40.6690690
  17.6524570  54.6491500  39.4883830  15.2382700  51.1164690  46.1891420
  15.8754920  51.7298830  46.5550610  15.3857590  51.1525350  45.2440650
  17.7807250  53.0078480  32.9714560  18.7056560  52.8759660  32.7632850
  17.7583040  53.0871300  33.9251010  17.8545740  53.7789140  35.5971270
  17.0597240  53.7134260  36.1264180  18.0589020  54.7139780  35.5856620
  14.7964160  67.8180690  39.5909660  15.3923230  67.4965260  38.9144080
  15.0542310  67.3452510  40.3822930   2.7026730  64.2498600  49.7400290
   2.6596360  63.8791510  50.6214750   2.8337740  65.1876170  49.8802110
   6.4032760  65.8058190  45.3410010   6.1624120  66.0732750  44.4540530
   7.3435400  65.9763920  45.3960870   8.6087180  52.2690880  49.0966520
   8.5476070  52.8612710  49.8461930   9.5487560  52.1616840  48.9516780
  11.2461740  51.9260940  48.7358810  11.8602150  52.2440230  48.0739890
  11.7911300  51.4409530  49.3554670  17.6636920  67.8252570  46.1420650
  17.1695200  68.2221440  45.4247780  17.0550210  67.2001780  46.5357930
   1.7683000  50.6055200  48.8497870   2.3165990  50.4243250  48.0863980
   1.8338310  49.8149310  49.3854180   2.5414760  67.1960850  46.8598070
   1.9475080  67.0645550  47.5988110   2.5338600  66.3598990  46.3940170
  11.9869780  50.4893080  45.0628100  11.1129620  50.8228190  44.8601030
  11.8780530  50.0166260  45.8879970  12.8941760  52.6963950  46.4469820
  12.5655120  51.8815710  46.0671550  13.8424060  52.6533760  46.3235510
  15.3476370  68.4675990  43.4207390  14.8879340  69.2191800  43.0465410
  14.7188830  67.7482460  43.3622190   5.7772090  66.7764230  42.5955520
   6.2937110  66.1651590  42.0703780   6.4269470  67.2793010  43.0866530
   8.5167590  67.6672720  43.4224500   8.8045400  67.4127020  42.5457510
   9.0290810  67.1150080  44.0130070   9.7344600  51.4062920  44.0021010
   8.9516390  51.8808420  44.2817770   9.4407530  50.5017750  43.8934190
  14.2865670  52.1086020  42.0470100  14.7273760  52.0531120  41.1991700
  14.0173260  53.0244030  42.1180280  16.1504240  51.7401260  40.0578920
  16.0892640  50.7962480  39.9109940  16.9296270  51.8481350  40.6032380
   7.6198820  53.8249670  39.5137040   6.8073330  53.4506560  39.1732920
   8.1240460  53.0694750  39.8158230  12.1223800  50.4892120  40.7520110
  12.7253170  51.0612330  41.2268630  11.3816790  51.0531560  40.5294010
  15.2658400  50.8913680  36.0260390  15.4609030  51.7897130  36.2927820
  14.4788270  50.6600760  36.5193340   3.4510160  52.2374450  35.0636700
   3.9802920  51.4504250  34.9344650   4.0838480  52.9165640  35.2972230
   5.6448000  51.9749590  38.1182090   5.0150740  51.2736900  38.2852220
   5.1053140  52.7353720  37.9015250   8.5839950  68.5888820  50.7892700
   9.5107260  68.3533090  50.8328660   8.5690380  69.4160820  50.3078730
  16.8185010  68.1314390  37.7866950  16.9937200  67.4452130  37.1427870
  16.1206580  68.6561440  37.3943620   5.7703560  51.2533570  50.5534580
   5.4887830  51.7567170  49.7895400   6.1523260  50.4555320  50.1876710
   4.6612660  68.5209230  35.3402260   5.3931480  68.2368510  34.7926150
   4.9206330  68.2822510  36.2301640   3.8227450  64.6373960  35.3448590
   3.1936330  65.1059060  35.8934420   3.9375280  63.7923180  35.7794780
  12.3719020  50.6687150  51.1315050  12.2584470  50.9881760  52.0266570
  13.1888760  51.0699660  50.8352330  15.1517510  67.8158680  50.6133740
  15.9442830  67.3207910  50.4059700  15.4450660  68.4948820  51.2209350
  11.2777170  58.6879620  21.4949790  11.1971220  57.7734230  21.2241500
  10.8641590  59.1846690  20.7889500   9.4095210  60.4658640  23.3759060
   8.6337310  59.9859080  23.6657630  10.0608140  59.7864290  23.2015220
   3.4261040  60.7778450  24.2534820   2.5945920  60.5227160  24.6531330
   4.0342020  60.8489220  24.9892740  13.4302640  64.8718830  22.1558190
  12.9684170  64.1006070  22.4845360  14.2428190  64.8984900  22.6610640
   3.4062300  64.8118540  24.4492840   3.7090340  63.9216280  24.2703060
   4.1505890  65.3688760  24.2215090   9.6565950  67.1576840  21.7762180
   9.0377390  67.6134340  21.2056620  10.5117730  67.3128300  21.3751880
   8.8504200  63.1415830  23.3829220   8.7812480  62.2005770  23.2218350
   9.6124060  63.2317240  23.9551790   9.8809370  55.9486210  23.6098150
  10.2574190  55.0758090  23.4971820   9.7828880  56.2844910  22.7188590
   4.0114380  54.3211840  19.0715590   4.1181130  55.2215570  19.3784350
   3.1006740  54.2729810  18.7810240  13.6633490  53.4436650  20.5426490
  14.4843110  52.9533220  20.5851970  13.6967570  54.0334310  21.2958330
   5.8522110  57.2898210  23.4040770   6.3600330  57.7879180  24.0445790
   6.3835350  56.5133410  23.2280130  17.9533040  55.4603400  27.1070120
  17.2485210  55.8485110  26.5885230  18.2190960  56.1553690  27.7091050
   4.1358210  51.9296770  27.6704190   4.1376650  52.4469160  26.8650090
   3.3062520  51.4526950  27.6474120  10.5229300  62.0416080  19.1694090
   9.9046570  62.5065530  18.6056810  11.0352550  62.7343560  19.5863600
   5.3861060  61.5691950  25.8477690   5.0530440  62.1960870  26.4898760
   5.5627740  62.0953830  25.0679360  13.8994970  55.3837030  23.3154030
  13.1950540  55.6721920  23.8957140  14.2607130  56.1937140  22.9553590
   3.8173540  53.6406730  25.6774640   4.1590350  54.4848780  25.3828510
   2.8789350  53.7890470  25.7939980   4.5980160  63.5372750  27.6626870
   5.2154160  64.2123830  27.3811320   3.7373280  63.9460730  27.5714370
  15.5157750  65.0012160  25.5781510  14.8321270  65.6711270  25.5698180
  16.0552040  65.1992810  24.8126370  16.9681890  54.8291820  23.7063240
  16.0206800  54.8630800  23.8378670  17.2931880  55.6430770  24.0912600
   7.5001430  51.1289000  22.0019230   7.8076410  50.5735890  21.2854730
   6.5702130  51.2633460  21.8192220  13.0516490  66.8456290  24.2926690
  13.0643650  66.4418580  23.4248950  12.4991710  67.6203580  24.1888120
  14.3461910  63.5672510  19.3816860  14.2358240  62.6246840  19.5066280
  14.3430160  63.9288150  20.2679620  12.4501930  61.7486130  25.6209300
  12.8670720  61.5346240  24.7862760  13.1741750  62.0058920  26.1917920
   9.8882190  59.1937830  18.7379350   8.9611470  59.1275210  18.9667820
  10.0407010  60.1317960  18.6234590   9.8751270  55.4654830  15.7346510
   8.9354940  55.6268790  15.8198970  10.1934530  56.1840510  15.1882500
  16.3964030  60.1473350  25.7125540  15.5682660  60.2166440  25.2375670
  16.9914510  60.7327660  25.2441370  13.9179480  60.7558130  19.2414600
  13.2991900  60.4177680  18.5940900  13.9003930  60.1117890  19.9493790
  13.3606040  56.9342670  26.6580410  12.9477220  57.7596380  26.9120400
  12.6281990  56.3487710  26.4656770   5.4938830  59.7202570  21.5199080
   5.0895830  59.0079820  21.0244980   5.5801950  59.3755810  22.4087120
   5.9620530  63.4070130  23.6838290   5.6648820  62.8015600  23.0046070
   6.9120350  63.4447440  23.5727650   4.2067450  56.4945780  25.2998120
   4.7582040  56.6041120  24.5251370   4.7210960  56.8683380  26.0153350
  14.0506140  66.9802000  27.3461390  13.5736700  67.7874190  27.1534000
  13.3667930  66.3280330  27.4987600   5.0538960  63.1451820  30.3346090
   4.1567490  63.3691790  30.5819490   5.0791830  63.2686760  29.3857490
  12.0944180  59.9944940  16.2487350  12.5337460  59.1567370  16.1025170
  12.8072600  60.6274340  16.3351490   3.8810180  60.0165140  28.9103460
   3.7417950  60.8887940  29.2790860   2.9991540  59.6737950  28.7651400
  10.2039560  64.9341010  20.2168590  10.6435470  65.6765340  19.8023980
  10.1426450  65.1767580  21.1407550   5.6790530  65.9586840  31.1188610
   5.6505960  66.3629790  30.2517040   5.5155500  65.0297200  30.9560210
  15.6761320  51.2487750  14.5628390  15.3633980  51.3414580  15.4627460
  16.4373790  51.8268780  14.5125820   2.1943460  58.6147550  19.0205730
   2.0741060  59.3409640  18.4087000   1.8844350  57.8450460  18.5433640
  17.6305350  66.7413940  32.4152780  18.1065070  67.2196830  33.0941860
  18.2512510  66.6731430  31.6898280  17.0338600  63.9326790  29.5752790
  17.1601660  63.6938670  28.6569970  17.0759980  63.1011330  30.0474870
  10.8955340  67.6354790  28.1447600  11.4100010  67.5462800  28.9470030
  10.0524420  67.9814490  28.4375510  12.8709740  67.9210130  17.5731600
  12.7110880  67.6313070  18.4713430  12.7056450  67.1450260  17.0376830
   5.3498120  67.7008660  19.3503220   5.1740600  66.7844200  19.1371020
   4.4953860  68.0595950  19.5901020  12.5735870  65.4297690  16.1329600
  11.8801030  65.4274980  15.4731880  13.3158730  65.0057010  15.7023770
  12.1385800  67.0560400  20.2078090  12.5942750  66.2749780  20.5216710
  12.4778320  67.7667220  20.7519270  16.8862610  55.9859250  30.5402530
  16.2706880  56.4938920  30.0117990  16.5659030  55.0857580  30.4828470
   4.6607120  51.9582620  22.4029400   4.2175270  52.7392160  22.0713920
   5.2192110  52.2812510  23.1100340   8.9476930  54.8251140  28.0064720
   8.4856300  55.0334160  28.8184660   8.5455040  54.0110490  27.7035390
  13.9481440  56.0460090  29.1361380  13.0975030  55.7465840  29.4570450
  13.7883230  56.2902100  28.2245200  11.0431150  57.5461840  31.2360170
  11.3684560  56.7125590  30.8962400  11.8311480  58.0690360  31.3838500
   7.7765940  51.5793320  17.2835230   7.1520120  51.5753190  18.0088540
   7.6896060  50.7124280  16.8871200   6.6983020  52.5029950  24.2619000
   6.9955350  53.4092780  24.1811020   7.2468580  52.0148730  23.6478570
   4.4521340  57.0816190  20.1310650   4.2262260  56.8653360  21.0357270
   3.6713870  57.5144650  19.7856620  11.6819100  57.0879560  18.7301300
  11.0827990  57.8115360  18.5464920  12.2298710  57.0256340  17.9477750
   6.8920550  57.9801770  30.7970920   6.7964150  57.0396500  30.6471320
   7.7352530  58.2016840  30.4018990  10.2883970  55.7243100  20.7604580
  10.6813540  56.0415300  19.9473270  10.6500820  54.8454980  20.8749100
   8.5976140  54.4750410  32.0201440   7.9074460  54.2822610  32.6547530
   9.3408440  54.7585050  32.5525740  10.8739110  58.3148850  24.8555360
  10.1420230  58.8235660  25.2045460  10.4763450  57.4978830  24.5544140
   7.3116500  54.9903050  23.2607850   7.3152560  54.5493000  22.4112390
   8.2067620  55.3120380  23.3679670   3.1618880  54.8729540  22.2202060
   2.8218930  55.3504770  22.9769110   2.3996200  54.4194660  21.8603160
   7.3736650  55.9915130  16.2514610   7.4949470  55.9501610  17.2000430
   6.9885160  56.8539280  16.0961340  11.3365020  53.7682530  24.2678300
  11.3537760  54.2191180  25.1120150  11.0880600  52.8688170  24.4811740
   6.3858150  58.3016270  15.6497910   5.8175050  57.8534520  15.0233820
   7.0947150  58.6609050  15.1163060  14.7635770  51.1814710  30.1064680
  15.0881540  50.4504370  30.6322660  14.7992280  50.8628350  29.2045670
   7.6124470  59.0504830  25.0073260   7.9794600  58.5763400  25.7534600
   7.4229530  59.9246400  25.3481600   5.4023840  58.0913470  27.3257470
   5.0980910  58.9705450  27.5507830   6.3570300  58.1513260  27.3614910
   3.9305630  62.2974460  17.9224320   3.1567890  61.7572080  17.7623040
   4.6600260  61.7781070  17.5842080  14.6893610  61.2939820  23.7150710
  15.4092730  61.7895110  23.3246820  14.4875430  60.6157710  23.0704580
  10.1503550  52.6877780  17.8580100   9.3368160  52.1890950  17.7825410
   9.9565500  53.5276030  17.4416450  10.0712410  61.3648880  29.6019710
  10.0049720  60.4444550  29.3477300   9.4417550  61.4624320  30.3164350
  12.8651940  57.0597430  16.1542260  13.7531560  57.3714660  15.9793600
  12.8357030  56.1869680  15.7622840   3.9743030  61.9654840  21.5603130
   4.4921700  61.1623100  21.5060020   3.5227050  61.9033980  22.4019960
   8.8612530  63.2321120  16.8330430   9.2028230  63.9763350  16.3373750
   8.0325240  63.5452240  17.1955260   4.6600690  59.3900450  31.3568380
   4.3600830  59.5357630  30.4596200   5.4311930  58.8305740  31.2641770
  10.0029140  64.1869450  29.3523510  10.0173680  63.2550410  29.1342420
   9.2954240  64.2729210  29.9913280  15.1366210  58.3709270  15.6222120
  15.0529930  58.8023490  14.7718560  15.8560400  58.8307620  16.0548940
  16.2140350  60.8276790  28.6992090  15.4888540  61.4205570  28.5021480
  16.7415810  60.8200330  27.9005460  16.1653460  65.2251530  18.3504250
  15.5229620  64.5707150  18.6247970  15.7784120  65.6306620  17.5744920
  11.7439940  62.5536960  22.1975940  12.0963760  61.9565090  21.5377310
  10.8602270  62.2281190  22.3684190   7.8303220  63.3134650  19.6046350
   8.5174350  63.8603860  19.9853940   7.0435640  63.8575380  19.6395960
   7.1330430  60.3180680  19.2171710   7.5893210  61.1285930  19.4431900
   6.7818640  60.0003820  20.0490200   9.4363040  65.8287020  26.4464010
  10.0805260  66.0346400  27.1237430   9.7992480  65.0675420  25.9934860
   3.0342210  50.6618330  19.6894230   2.9056840  50.6536230  20.6379150
   2.2104230  51.0001420  19.3385240  10.7095120  63.8319370  25.1641460
  11.3517350  63.1312530  25.2773630  11.2344470  64.6117810  24.9838350
  14.5550840  64.1167990  14.8880600  14.3288420  63.3998430  15.4805240
  14.1647040  63.8680430  14.0502350  12.4832740  64.6314270  28.3677520
  12.8188980  65.2180960  29.0455440  11.5633080  64.5006980  28.5975310
  14.1367090  62.0339930  16.5494760  13.8488790  62.4952620  17.3372640
  14.9319260  61.5737700  16.8178980   8.3121320  64.6805600  31.5365580
   7.9918190  63.9614840  32.0811270   7.6379680  65.3560670  31.6101640
   6.3535490  65.5266050  16.4798730   6.3445590  66.2595740  15.8643240
   5.4333850  65.2797630  16.5725690  11.5274920  54.9131760  26.9002380
  11.8955740  54.0926970  27.2281950  10.6673120  54.9733650  27.3158030
  14.8936950  53.8688700  17.7089940  14.2650110  53.9734370  16.9948170
  14.3988870  54.0885480  18.4983820   9.3395090  65.5894290  15.1423920
   9.4407070  65.3858280  14.2125900   8.4396830  65.3352570  15.3471700
   6.8620980  56.1474650  19.1247820   6.1537130  56.6160990  19.5661430
   7.1465460  55.4896660  19.7593010   8.4876910  57.5671350  27.1240350
   8.9862160  58.0417170  27.7892200   8.6299860  56.6434870  27.3310380
  10.8936410  52.8725310  20.5643610  10.7704190  52.8911440  19.6153120
  11.8420970  52.9204250  20.6842010   7.9813200  68.1080610  19.8371590
   8.2354700  68.0702000  18.9150960   7.0325680  67.9813940  19.8299840
   5.0656000  54.4559730  16.4998530   5.9146530  54.8929880  16.4338720
   4.6987270  54.7679990  17.3270590  15.6943770  53.7839310  27.9668740
  15.1917370  54.5244710  28.3062550  16.5100430  54.1723310  27.6505530
  13.9865780  59.0272490  21.4130100  13.0455920  59.0422720  21.5877790
  14.3009850  58.2408450  21.8590400   3.9647420  60.7092090  14.9734060
   4.7310690  60.5973450  15.5359490   4.0422110  60.0130060  14.3210830
   2.6594180  58.1417160  15.6566950   2.7397770  57.1944670  15.7684350
   3.5513930  58.4724040  15.7627610  15.9891360  66.1981340  23.0884360
  16.1138780  67.0212510  23.5608170  16.8556920  65.9872070  22.7408510
   3.4608890  68.2912550  22.7601490   4.1971370  67.7428010  23.0310060
   3.8449810  69.1568560  22.6207480   2.4667170  67.4758620  31.9487070
   3.2679900  67.7970670  32.3622470   1.9518990  67.1154200  32.6706980
   6.5711200  67.4642860  14.5827060   7.3639810  67.7531690  14.1308850
   6.0515550  67.0335030  13.9039540  11.3031800  63.5838490  31.8962480
  10.6969960  63.6070090  31.1558230  10.9985910  62.8521530  32.4329730
  12.7332170  67.3118780  30.5071890  13.6853920  67.2276800  30.4572130
  12.5860390  67.9760490  31.1805680  15.6241370  66.6912990  16.0063800
  15.3382880  66.2778130  15.1917980  15.4260920  67.6200700  15.8864320
   7.0888600  62.6846270  14.4469410   6.9839240  62.0698620  15.1730790
   6.9212820  62.1612160  13.6632420   7.2402920  61.3703070  30.4258640
   6.4748590  61.9388070  30.3413310   7.4218880  61.0779280  29.5326870
  10.3291330  61.7466300  15.0511400   9.7801430  62.1935600  15.6954140
  10.9510590  61.2415550  15.5749070  14.3826270  63.1008400  30.9833660
  15.1235740  63.4384160  30.4801120  13.6198950  63.2700460  30.4303430
   2.2188060  58.1061670  31.7873190   2.2593400  57.8075540  32.6958420
   3.0733560  58.5069280  31.6280710   5.9966450  60.7057220  16.9476700
   6.4182870  60.5397090  17.7908090   6.1217290  59.8957450  16.4531840
   4.1593870  56.6853770  29.7547680   3.6290330  56.1944720  29.1271020
   4.8281940  57.1137970  29.2205610   8.5094090  59.7294830  14.1953800
   9.0299750  59.0143850  13.8294950   9.1562490  60.3680700  14.4954310
  13.0571930  61.1523230  29.5188870  13.4712950  61.3068310  30.3679290
  12.1222930  61.2778450  29.6814650  13.5294100  58.4919390  31.5228020
  14.1114870  57.7371710  31.4348500  13.7055870  59.0226830  30.7459500
   4.6466170  53.6516140  29.8344970   4.5523040  53.0336890  29.1095840
   4.0663560  54.3782430  29.6074880   7.4127610  52.2089380  26.8672360
   6.9644910  52.2313640  26.0217910   6.7792810  51.8108400  27.4642660
   7.8187160  61.1043710  27.4884800   8.2375270  61.9476440  27.3161040
   6.8995790  61.2415750  27.2591580  10.1551060  58.8359890  28.8722640
  10.2747270  58.2401030  29.6117480  11.0145060  58.8729580  28.4523940
  12.4938960  59.3897080  27.4485150  11.9674180  59.9139700  26.8450290
  12.8370300  60.0224470  28.0794880   4.8925350  56.7790450  13.8934860
   4.6914410  55.9157810  14.2548200   4.7217400  56.6923810  12.9556460
   5.6694580  67.4096720  28.6042530   5.1315670  68.1342780  28.2851230
   5.9228540  66.9327060  27.8139870   6.9219830  55.3781240  30.1298460
   7.5119520  55.0697090  30.8176280   6.1040070  54.9060990  30.2858360
  11.7413260  54.9947050  30.3631480  11.0528780  54.3328590  30.2981470
  12.4619280  54.5485320  30.8079940  12.3713660  51.5898680  16.4221740
  12.6515950  50.7466580  16.7781160  11.5979390  51.8221790  16.9360490
   3.6908150  53.8791070  13.8812740   3.9934050  53.8858500  12.9731890
   4.4302740  53.5288930  14.3780400   8.5256790  68.6447930  28.8629180
   8.4515490  69.5483070  29.1701550   7.6235630  68.3259830  28.8351250
   6.9093080  52.8225690  14.8668940   6.5615080  52.1449680  14.2871390
   7.1105850  52.3615200  15.6812330   9.0742120  67.8106440  16.4855540
   9.9692910  68.1491410  16.5074300   9.1059750  67.0885850  15.8579820
   2.7138280  63.1833490  14.7142540   3.1513150  63.7263160  15.3700120
   3.1986010  62.3580440  14.7238880   4.5246000  64.3031530  19.8264770
   4.2241540  64.1796500  20.7268680   4.4183490  63.4440120  19.4180500
  16.0536470  66.3410110  29.1921740  15.4538460  66.4002670  28.4485660
  16.1830370  65.4015090  29.3218590  17.2937920  64.0827930  14.5291450
  16.4630880  64.1504580  14.9998680  17.4709750  64.9732050  14.2258310
  16.7494380  60.8275410  17.0325650  17.5113290  61.3972060  17.1385340
  16.7648750  60.2602610  17.8033960  17.7554350  61.6825510  21.8767580
  18.1263180  60.8992830  21.4703550  18.3956280  62.3714610  21.6984880
  14.7388110  63.0662090  27.2897900  13.9247950  63.4959250  27.5523690
  15.1462310  63.6780500  26.6766950  16.8013550  61.1209780  14.1898170
  17.0762390  62.0288660  14.0617390  16.6124290  61.0572310  15.1260160
  13.1989160  54.1454630  15.4851800  13.6174040  53.9585610  14.6448460
  12.8925220  53.2933680  15.7954730  16.6978890  59.0578770  19.1827600
  16.3222490  58.2906700  18.7508890  15.9682010  59.4401470  19.6702530
  16.0878510  58.2050290  28.8167120  15.8564600  57.9763040  27.9165070
  16.3483060  59.1249840  28.7712010  14.5266580  53.4306720  31.5946820
  15.4036760  53.4390120  31.9780820  14.5387420  52.6937560  30.9839170
  15.9729850  57.2836260  22.4834840  16.4967330  56.7898910  21.8525010
  16.5589270  57.4186620  23.2282410  16.1519570  57.3676130  26.0054390
  15.2022280  57.3339670  26.1199380  16.3332580  58.2776240  25.7704160
  15.4629820  56.5409610  18.4227250  15.9588940  56.3080480  19.2076130
  15.2645890  55.7021450  18.0064890  16.8916980  55.1770560  20.9564930
  16.7816260  55.0226600  21.8947200  17.6524570  54.6491500  20.7140340
  15.2382700  51.1164690  27.4147930  15.8754920  51.7298830  27.7807120
  15.3857590  51.1525350  26.4697160  17.7807250  53.0078480  14.1971070
  18.7056560  52.8759660  13.9889360  17.7583040  53.0871300  15.1507520
  17.8545740  53.7789140  16.8227780  17.0597240  53.7134260  17.3520690
  18.0589020  54.7139780  16.8113130  14.7964160  67.8180690  20.8166170
  15.3923230  67.4965260  20.1400590  15.0542310  67.3452510  21.6079440
   2.7026730  64.2498600  30.9656800   2.6596360  63.8791510  31.8471260
   2.8337740  65.1876170  31.1058620   6.4032760  65.8058190  26.5666520
   6.1624120  66.0732750  25.6797040   7.3435400  65.9763920  26.6217380
   8.6087180  52.2690880  30.3223030   8.5476070  52.8612710  31.0718440
   9.5487560  52.1616840  30.1773290  11.2461740  51.9260940  29.9615320
  11.8602150  52.2440230  29.2996400  11.7911300  51.4409530  30.5811180
  17.6636920  67.8252570  27.3677160  17.1695200  68.2221440  26.6504290
  17.0550210  67.2001780  27.7614440   1.7683000  50.6055200  30.0754380
   2.3165990  50.4243250  29.3120490   1.8338310  49.8149310  30.6110690
   2.5414760  67.1960850  28.0854580   1.9475080  67.0645550  28.8244620
   2.5338600  66.3598990  27.6196680  11.9869780  50.4893080  26.2884610
  11.1129620  50.8228190  26.0857540  11.8780530  50.0166260  27.1136480
  12.8941760  52.6963950  27.6726330  12.5655120  51.8815710  27.2928060
  13.8424060  52.6533760  27.5492020  15.3476370  68.4675990  24.6463900
  14.8879340  69.2191800  24.2721920  14.7188830  67.7482460  24.5878700
   5.7772090  66.7764230  23.8212030   6.2937110  66.1651590  23.2960290
   6.4269470  67.2793010  24.3123040   8.5167590  67.6672720  24.6481010
   8.8045400  67.4127020  23.7714020   9.0290810  67.1150080  25.2386580
   9.7344600  51.4062920  25.2277520   8.9516390  51.8808420  25.5074280
   9.4407530  50.5017750  25.1190700  14.2865670  52.1086020  23.2726610
  14.7273760  52.0531120  22.4248210  14.0173260  53.0244030  23.3436790
  16.1504240  51.7401260  21.2835430  16.0892640  50.7962480  21.1366450
  16.9296270  51.8481350  21.8288890   7.6198820  53.8249670  20.7393550
   6.8073330  53.4506560  20.3989430   8.1240460  53.0694750  21.0414740
  12.1223800  50.4892120  21.9776620  12.7253170  51.0612330  22.4525140
  11.3816790  51.0531560  21.7550520  15.2658400  50.8913680  17.2516900
  15.4609030  51.7897130  17.5184330  14.4788270  50.6600760  17.7449850
   3.4510160  52.2374450  16.2893210   3.9802920  51.4504250  16.1601160
   4.0838480  52.9165640  16.5228740   5.6448000  51.9749590  19.3438600
   5.0150740  51.2736900  19.5108730   5.1053140  52.7353720  19.1271760
   8.5839950  68.5888820  32.0149210   9.5107260  68.3533090  32.0585170
   8.5690380  69.4160820  31.5335240  16.8185010  68.1314390  19.0123460
  16.9937200  67.4452130  18.3684380  16.1206580  68.6561440  18.6200130
   5.7703560  51.2533570  31.7791090   5.4887830  51.7567170  31.0151910
   6.1523260  50.4555320  31.4133220   4.6612660  68.5209230  16.5658770
   5.3931480  68.2368510  16.0182660   4.9206330  68.2822510  17.4558150
   3.8227450  64.6373960  16.5705100   3.1936330  65.1059060  17.1190930
   3.9375280  63.7923180  17.0051290  12.3719020  50.6687150  32.3571560
  12.2584470  50.9881760  33.2523080  13.1888760  51.0699660  32.0608840
  15.1517510  67.8158680  31.8390250  15.9442830  67.3207910  31.6316210
  15.4450660  68.4948820  32.4465860  11.2777170  58.6879620   2.7206300
  11.1971220  57.7734230   2.4498010  10.8641590  59.1846690   2.0146010
   9.4095210  60.4658640   4.6015570   8.6337310  59.9859080   4.8914140
  10.0608140  59.7864290   4.4271730   3.4261040  60.7778450   5.4791330
   2.5945920  60.5227160   5.8787840   4.0342020  60.8489220   6.2149250
  13.4302640  64.8718830   3.3814700  12.9684170  64.1006070   3.7101870
  14.2428190  64.8984900   3.8867150   3.4062300  64.8118540   5.6749350
   3.7090340  63.9216280   5.4959570   4.1505890  65.3688760   5.4471600
   9.6565950  67.1576840   3.0018690   9.0377390  67.6134340   2.4313130
  10.5117730  67.3128300   2.6008390   8.8504200  63.1415830   4.6085730
   8.7812480  62.2005770   4.4474860   9.6124060  63.2317240   5.1808300
   9.8809370  55.9486210   4.8354660  10.2574190  55.0758090   4.7228330
   9.7828880  56.2844910   3.9445100  13.6633490  53.4436650   1.7683000
  14.4843110  52.9533220   1.8108480  13.6967570  54.0334310   2.5214840
   5.8522110  57.2898210   4.6297280   6.3600330  57.7879180   5.2702300
   6.3835350  56.5133410   4.4536640  17.9533040  55.4603400   8.3326630
  17.2485210  55.8485110   7.8141740  18.2190960  56.1553690   8.9347560
   4.1358210  51.9296770   8.8960700   4.1376650  52.4469160   8.0906600
   3.3062520  51.4526950   8.8730630   5.3861060  61.5691950   7.0734200
   5.0530440  62.1960870   7.7155270   5.5627740  62.0953830   6.2935870
  13.8994970  55.3837030   4.5410540  13.1950540  55.6721920   5.1213650
  14.2607130  56.1937140   4.1810100   3.8173540  53.6406730   6.9031150
   4.1590350  54.4848780   6.6085020   2.8789350  53.7890470   7.0196490
   4.5980160  63.5372750   8.8883380   5.2154160  64.2123830   8.6067830
   3.7373280  63.9460730   8.7970880  15.5157750  65.0012160   6.8038020
  14.8321270  65.6711270   6.7954690  16.0552040  65.1992810   6.0382880
  16.9681890  54.8291820   4.9319750  16.0206800  54.8630800   5.0635180
  17.2931880  55.6430770   5.3169110   7.5001430  51.1289000   3.2275740
   7.8076410  50.5735890   2.5111240   6.5702130  51.2633460   3.0448730
  13.0516490  66.8456290   5.5183200  13.0643650  66.4418580   4.6505460
  12.4991710  67.6203580   5.4144630  12.4501930  61.7486130   6.8465810
  12.8670720  61.5346240   6.0119270  13.1741750  62.0058920   7.4174430
  16.3964030  60.1473350   6.9382050  15.5682660  60.2166440   6.4632180
  16.9914510  60.7327660   6.4697880  13.3606040  56.9342670   7.8836920
  12.9477220  57.7596380   8.1376910  12.6281990  56.3487710   7.6913280
   5.4938830  59.7202570   2.7455590   5.0895830  59.0079820   2.2501490
   5.5801950  59.3755810   3.6343630   5.9620530  63.4070130   4.9094800
   5.6648820  62.8015600   4.2302580   6.9120350  63.4447440   4.7984160
   4.2067450  56.4945780   6.5254630   4.7582040  56.6041120   5.7507880
   4.7210960  56.8683380   7.2409860  14.0506140  66.9802000   8.5717900
  13.5736700  67.7874190   8.3790510  13.3667930  66.3280330   8.7244110
   5.0538960  63.1451820  11.5602600   4.1567490  63.3691790  11.8076000
   5.0791830  63.2686760  10.6114000   3.8810180  60.0165140  10.1359970
   3.7417950  60.8887940  10.5047370   2.9991540  59.6737950   9.9907910
   5.6790530  65.9586840  12.3445120   5.6505960  66.3629790  11.4773550
   5.5155500  65.0297200  12.1816720  17.6305350  66.7413940  13.6409290
  18.1065070  67.2196830  14.3198370  18.2512510  66.6731430  12.9154790
  17.0338600  63.9326790  10.8009300  17.1601660  63.6938670   9.8826480
  17.0759980  63.1011330  11.2731380  10.8955340  67.6354790   9.3704110
  11.4100010  67.5462800  10.1726540  10.0524420  67.9814490   9.6632020
  16.8862610  55.9859250  11.7659040  16.2706880  56.4938920  11.2374500
  16.5659030  55.0857580  11.7084980   4.6607120  51.9582620   3.6285910
   4.2175270  52.7392160   3.2970430   5.2192110  52.2812510   4.3356850
   8.9476930  54.8251140   9.2321230   8.4856300  55.0334160  10.0441170
   8.5455040  54.0110490   8.9291900  13.9481440  56.0460090  10.3617890
  13.0975030  55.7465840  10.6826960  13.7883230  56.2902100   9.4501710
  11.0431150  57.5461840  12.4616680  11.3684560  56.7125590  12.1218910
  11.8311480  58.0690360  12.6095010   6.6983020  52.5029950   5.4875510
   6.9955350  53.4092780   5.4067530   7.2468580  52.0148730   4.8735080
   6.8920550  57.9801770  12.0227430   6.7964150  57.0396500  11.8727830
   7.7352530  58.2016840  11.6275500   8.5976140  54.4750410  13.2457950
   7.9074460  54.2822610  13.8804040   9.3408440  54.7585050  13.7782250
  10.8739110  58.3148850   6.0811870  10.1420230  58.8235660   6.4301970
  10.4763450  57.4978830   5.7800650   7.3116500  54.9903050   4.4864360
   7.3152560  54.5493000   3.6368900   8.2067620  55.3120380   4.5936180
   3.1618880  54.8729540   3.4458570   2.8218930  55.3504770   4.2025620
   2.3996200  54.4194660   3.0859670  11.3365020  53.7682530   5.4934810
  11.3537760  54.2191180   6.3376660  11.0880600  52.8688170   5.7068250
  14.7635770  51.1814710  11.3321190  15.0881540  50.4504370  11.8579170
  14.7992280  50.8628350  10.4302180   7.6124470  59.0504830   6.2329770
   7.9794600  58.5763400   6.9791110   7.4229530  59.9246400   6.5738110
   5.4023840  58.0913470   8.5513980   5.0980910  58.9705450   8.7764340
   6.3570300  58.1513260   8.5871420  14.6893610  61.2939820   4.9407220
  15.4092730  61.7895110   4.5503330  14.4875430  60.6157710   4.2961090
  10.0712410  61.3648880  10.8276220  10.0049720  60.4444550  10.5733810
   9.4417550  61.4624320  11.5420860   3.9743030  61.9654840   2.7859640
   4.4921700  61.1623100   2.7316530   3.5227050  61.9033980   3.6276470
   4.6600690  59.3900450  12.5824890   4.3600830  59.5357630  11.6852710
   5.4311930  58.8305740  12.4898280  10.0029140  64.1869450  10.5780020
  10.0173680  63.2550410  10.3598930   9.2954240  64.2729210  11.2169790
  16.2140350  60.8276790   9.9248600  15.4888540  61.4205570   9.7277990
  16.7415810  60.8200330   9.1261970  11.7439940  62.5536960   3.4232450
  12.0963760  61.9565090   2.7633820  10.8602270  62.2281190   3.5940700
   9.4363040  65.8287020   7.6720520  10.0805260  66.0346400   8.3493940
   9.7992480  65.0675420   7.2191370  10.7095120  63.8319370   6.3897970
  11.3517350  63.1312530   6.5030140  11.2344470  64.6117810   6.2094860
  12.4832740  64.6314270   9.5934030  12.8188980  65.2180960  10.2711950
  11.5633080  64.5006980   9.8231820   8.3121320  64.6805600  12.7622090
   7.9918190  63.9614840  13.3067780   7.6379680  65.3560670  12.8358150
  11.5274920  54.9131760   8.1258890  11.8955740  54.0926970   8.4538460
  10.6673120  54.9733650   8.5414540   8.4876910  57.5671350   8.3496860
   8.9862160  58.0417170   9.0148710   8.6299860  56.6434870   8.5566890
  15.6943770  53.7839310   9.1925250  15.1917370  54.5244710   9.5319060
  16.5100430  54.1723310   8.8762040  13.9865780  59.0272490   2.6386610
  13.0455920  59.0422720   2.8134300  14.3009850  58.2408450   3.0846910
  15.9891360  66.1981340   4.3140870  16.1138780  67.0212510   4.7864680
  16.8556920  65.9872070   3.9665020   3.4608890  68.2912550   3.9858000
   4.1971370  67.7428010   4.2566570   3.8449810  69.1568560   3.8463990
   2.4667170  67.4758620  13.1743580   3.2679900  67.7970670  13.5878980
   1.9518990  67.1154200  13.8963490  11.3031800  63.5838490  13.1218990
  10.6969960  63.6070090  12.3814740  10.9985910  62.8521530  13.6586240
  12.7332170  67.3118780  11.7328400  13.6853920  67.2276800  11.6828640
  12.5860390  67.9760490  12.4062190   7.2402920  61.3703070  11.6515150
   6.4748590  61.9388070  11.5669820   7.4218880  61.0779280  10.7583380
  14.3826270  63.1008400  12.2090170  15.1235740  63.4384160  11.7057630
  13.6198950  63.2700460  11.6559940   2.2188060  58.1061670  13.0129700
   2.2593400  57.8075540  13.9214930   3.0733560  58.5069280  12.8537220
   4.1593870  56.6853770  10.9804190   3.6290330  56.1944720  10.3527530
   4.8281940  57.1137970  10.4462120  13.0571930  61.1523230  10.7445380
  13.4712950  61.3068310  11.5935800  12.1222930  61.2778450  10.9071160
  13.5294100  58.4919390  12.7484530  14.1114870  57.7371710  12.6605010
  13.7055870  59.0226830  11.9716010   4.6466170  53.6516140  11.0601480
   4.5523040  53.0336890  10.3352350   4.0663560  54.3782430  10.8331390
   7.4127610  52.2089380   8.0928870   6.9644910  52.2313640   7.2474420
   6.7792810  51.8108400   8.6899170   7.8187160  61.1043710   8.7141310
   8.2375270  61.9476440   8.5417550   6.8995790  61.2415750   8.4848090
  10.1551060  58.8359890  10.0979150  10.2747270  58.2401030  10.8373990
  11.0145060  58.8729580   9.6780450  12.4938960  59.3897080   8.6741660
  11.9674180  59.9139700   8.0706800  12.8370300  60.0224470   9.3051390
   5.6694580  67.4096720   9.8299040   5.1315670  68.1342780   9.5107740
   5.9228540  66.9327060   9.0396380   6.9219830  55.3781240  11.3554970
   7.5119520  55.0697090  12.0432790   6.1040070  54.9060990  11.5114870
  11.7413260  54.9947050  11.5887990  11.0528780  54.3328590  11.5237980
  12.4619280  54.5485320  12.0336450   8.5256790  68.6447930  10.0885690
   8.4515490  69.5483070  10.3958060   7.6235630  68.3259830  10.0607760
  16.0536470  66.3410110  10.4178250  15.4538460  66.4002670   9.6742170
  16.1830370  65.4015090  10.5475100  17.7554350  61.6825510   3.1024090
  18.1263180  60.8992830   2.6960060  18.3956280  62.3714610   2.9241390
  14.7388110  63.0662090   8.5154410  13.9247950  63.4959250   8.7780200
  15.1462310  63.6780500   7.9023460  16.0878510  58.2050290  10.0423630
  15.8564600  57.9763040   9.1421580  16.3483060  59.1249840   9.9968520
  14.5266580  53.4306720  12.8203330  15.4036760  53.4390120  13.2037330
  14.5387420  52.6937560  12.2095680  15.9729850  57.2836260   3.7091350
  16.4967330  56.7898910   3.0781520  16.5589270  57.4186620   4.4538920
  16.1519570  57.3676130   7.2310900  15.2022280  57.3339670   7.3455890
  16.3332580  58.2776240   6.9960670  16.8916980  55.1770560   2.1821440
  16.7816260  55.0226600   3.1203710  17.6524570  54.6491500   1.9396850
  15.2382700  51.1164690   8.6404440  15.8754920  51.7298830   9.0063630
  15.3857590  51.1525350   7.6953670   2.7026730  64.2498600  12.1913310
   2.6596360  63.8791510  13.0727770   2.8337740  65.1876170  12.3315130
   6.4032760  65.8058190   7.7923030   6.1624120  66.0732750   6.9053550
   7.3435400  65.9763920   7.8473890   8.6087180  52.2690880  11.5479540
   8.5476070  52.8612710  12.2974950   9.5487560  52.1616840  11.4029800
  11.2461740  51.9260940  11.1871830  11.8602150  52.2440230  10.5252910
  11.7911300  51.4409530  11.8067690  17.6636920  67.8252570   8.5933670
  17.1695200  68.2221440   7.8760800  17.0550210  67.2001780   8.9870950
   1.7683000  50.6055200  11.3010890   2.3165990  50.4243250  10.5377000
   1.8338310  49.8149310  11.8367200   2.5414760  67.1960850   9.3111090
   1.9475080  67.0645550  10.0501130   2.5338600  66.3598990   8.8453190
  11.9869780  50.4893080   7.5141120  11.1129620  50.8228190   7.3114050
  11.8780530  50.0166260   8.3392990  12.8941760  52.6963950   8.8982840
  12.5655120  51.8815710   8.5184570  13.8424060  52.6533760   8.7748530
  15.3476370  68.4675990   5.8720410  14.8879340  69.2191800   5.4978430
  14.7188830  67.7482460   5.8135210   5.7772090  66.7764230   5.0468540
   6.2937110  66.1651590   4.5216800   6.4269470  67.2793010   5.5379550
   8.5167590  67.6672720   5.8737520   8.8045400  67.4127020   4.9970530
   9.0290810  67.1150080   6.4643090   9.7344600  51.4062920   6.4534030
   8.9516390  51.8808420   6.7330790   9.4407530  50.5017750   6.3447210
  14.2865670  52.1086020   4.4983120  14.7273760  52.0531120   3.6504720
  14.0173260  53.0244030   4.5693300  16.1504240  51.7401260   2.5091940
  16.0892640  50.7962480   2.3622960  16.9296270  51.8481350   3.0545400
  12.1223800  50.4892120   3.2033130  12.7253170  51.0612330   3.6781650
  11.3816790  51.0531560   2.9807030   8.5839950  68.5888820  13.2405720
   9.5107260  68.3533090  13.2841680   8.5690380  69.4160820  12.7591750
   5.7703560  51.2533570  13.0047600   5.4887830  51.7567170  12.2408420
   6.1523260  50.4555320  12.6389730  12.3719020  50.6687150  13.5828070
  12.2584470  50.9881760  14.4779590  13.1888760  51.0699660  13.2865350
  15.1517510  67.8158680  13.0646760  15.9442830  67.3207910  12.8572720
  15.4450660  68.4948820  13.6722370  11.2777170  39.9136130  59.0436770
  11.1971220  38.9990740  58.7728480  10.8641590  40.4103200  58.3376480
   9.4095210  41.6915150  60.9246040   8.6337310  41.2115590  61.2144610
  10.0608140  41.0120800  60.7502200   3.4261040  42.0034960  61.8021800
   2.5945920  41.7483670  62.2018310   4.0342020  42.0745730  62.5379720
  13.4302640  46.0975340  59.7045170  12.9684170  45.3262580  60.0332340
  14.2428190  46.1241410  60.2097620   3.4062300  46.0375050  61.9979820
   3.7090340  45.1472790  61.8190040   4.1505890  46.5945270  61.7702070
   9.6565950  48.3833350  59.3249160   9.0377390  48.8390850  58.7543600
  10.5117730  48.5384810  58.9238860   8.8504200  44.3672340  60.9316200
   8.7812480  43.4262280  60.7705330   9.6124060  44.4573750  61.5038770
   9.8809370  37.1742720  61.1585130  10.2574190  36.3014600  61.0458800
   9.7828880  37.5101420  60.2675570   4.0114380  35.5468350  56.6202570
   4.1181130  36.4472080  56.9271330   3.1006740  35.4986320  56.3297220
  13.6633490  34.6693160  58.0913470  14.4843110  34.1789730  58.1338950
  13.6967570  35.2590820  58.8445310   5.8522110  38.5154720  60.9527750
   6.3600330  39.0135690  61.5932770   6.3835350  37.7389920  60.7767110
  10.5229300  43.2672590  56.7181070   9.9046570  43.7322040  56.1543790
  11.0352550  43.9600070  57.1350580  13.8994970  36.6093540  60.8641010
  13.1950540  36.8978430  61.4444120  14.2607130  37.4193650  60.5040570
  15.5157750  46.2268670  63.1268490  14.8321270  46.8967780  63.1185160
  16.0552040  46.4249320  62.3613350  16.9681890  36.0548330  61.2550220
  16.0206800  36.0887310  61.3865650  17.2931880  36.8687280  61.6399580
   7.5001430  32.3545510  59.5506210   7.8076410  31.7992400  58.8341710
   6.5702130  32.4889970  59.3679200  13.0516490  48.0712800  61.8413670
  13.0643650  47.6675090  60.9735930  12.4991710  48.8460090  61.7375100
  14.3461910  44.7929020  56.9303840  14.2358240  43.8503350  57.0553260
  14.3430160  45.1544660  57.8166600   9.8882190  40.4194340  56.2866330
   8.9611470  40.3531720  56.5154800  10.0407010  41.3574470  56.1721570
   9.8751270  36.6911340  53.2833490   8.9354940  36.8525300  53.3685950
  10.1934530  37.4097020  52.7369480  16.3964030  41.3729860  63.2612520
  15.5682660  41.4422950  62.7862650  16.9914510  41.9584170  62.7928350
  13.9179480  41.9814640  56.7901580  13.2991900  41.6434190  56.1427880
  13.9003930  41.3374400  57.4980770   5.4938830  40.9459080  59.0686060
   5.0895830  40.2336330  58.5731960   5.5801950  40.6012320  59.9574100
   5.9620530  44.6326640  61.2325270   5.6648820  44.0272110  60.5533050
   6.9120350  44.6703950  61.1214630  12.0944180  41.2201450  53.7974330
  12.5337460  40.3823880  53.6512150  12.8072600  41.8530850  53.8838470
  10.2039560  46.1597520  57.7655570  10.6435470  46.9021850  57.3510960
  10.1426450  46.4024090  58.6894530  15.6761320  32.4744260  52.1115370
  15.3633980  32.5671090  53.0114440  16.4373790  33.0525290  52.0612800
   2.1943460  39.8404060  56.5692710   2.0741060  40.5666150  55.9573980
   1.8844350  39.0706970  56.0920620  12.8709740  49.1466640  55.1218580
  12.7110880  48.8569580  56.0200410  12.7056450  48.3706770  54.5863810
   5.3498120  48.9265170  56.8990200   5.1740600  48.0100710  56.6858000
   4.4953860  49.2852460  57.1388000  12.5735870  46.6554200  53.6816580
  11.8801030  46.6531490  53.0218860  13.3158730  46.2313520  53.2510750
  12.1385800  48.2816910  57.7565070  12.5942750  47.5006290  58.0703690
  12.4778320  48.9923730  58.3006250   4.6607120  33.1839130  59.9516380
   4.2175270  33.9648670  59.6200900   5.2192110  33.5069020  60.6587320
   7.7765940  32.8049830  54.8322210   7.1520120  32.8009700  55.5575520
   7.6896060  31.9380790  54.4358180   6.6983020  33.7286460  61.8105980
   6.9955350  34.6349290  61.7298000   7.2468580  33.2405240  61.1965550
   4.4521340  38.3072700  57.6797630   4.2262260  38.0909870  58.5844250
   3.6713870  38.7401160  57.3343600  11.6819100  38.3136070  56.2788280
  11.0827990  39.0371870  56.0951900  12.2298710  38.2512850  55.4964730
  10.2883970  36.9499610  58.3091560  10.6813540  37.2671810  57.4960250
  10.6500820  36.0711490  58.4236080  10.8739110  39.5405360  62.4042340
  10.1420230  40.0492170  62.7532440  10.4763450  38.7235340  62.1031120
   7.3116500  36.2159560  60.8094830   7.3152560  35.7749510  59.9599370
   8.2067620  36.5376890  60.9166650   3.1618880  36.0986050  59.7689040
   2.8218930  36.5761280  60.5256090   2.3996200  35.6451170  59.4090140
   7.3736650  37.2171640  53.8001590   7.4949470  37.1758120  54.7487410
   6.9885160  38.0795790  53.6448320  11.3365020  34.9939040  61.8165280
  11.3537760  35.4447690  62.6607130  11.0880600  34.0944680  62.0298720
   6.3858150  39.5272780  53.1984890   5.8175050  39.0791030  52.5720800
   7.0947150  39.8865560  52.6650040   3.9305630  43.5230970  55.4711300
   3.1567890  42.9828590  55.3110020   4.6600260  43.0037580  55.1329060
  14.6893610  42.5196330  61.2637690  15.4092730  43.0151620  60.8733800
  14.4875430  41.8414220  60.6191560  10.1503550  33.9134290  55.4067080
   9.3368160  33.4147460  55.3312390   9.9565500  34.7532540  54.9903430
  12.8651940  38.2853940  53.7029240  13.7531560  38.5971170  53.5280580
  12.8357030  37.4126190  53.3109820   3.9743030  43.1911350  59.1090110
   4.4921700  42.3879610  59.0547000   3.5227050  43.1290490  59.9506940
   8.8612530  44.4577630  54.3817410   9.2028230  45.2019860  53.8860730
   8.0325240  44.7708750  54.7442240  15.1366210  39.5965780  53.1709100
  15.0529930  40.0280000  52.3205540  15.8560400  40.0564130  53.6035920
  16.1653460  46.4508040  55.8991230  15.5229620  45.7963660  56.1734950
  15.7784120  46.8563130  55.1231900  11.7439940  43.7793470  59.7462920
  12.0963760  43.1821600  59.0864290  10.8602270  43.4537700  59.9171170
   7.8303220  44.5391160  57.1533330   8.5174350  45.0860370  57.5340920
   7.0435640  45.0831890  57.1882940   7.1330430  41.5437190  56.7658690
   7.5893210  42.3542440  56.9918880   6.7818640  41.2260330  57.5977180
   3.0342210  31.8874840  57.2381210   2.9056840  31.8792740  58.1866130
   2.2104230  32.2257930  56.8872220  10.7095120  45.0575880  62.7128440
  11.3517350  44.3569040  62.8260610  11.2344470  45.8374320  62.5325330
  14.5550840  45.3424500  52.4367580  14.3288420  44.6254940  53.0292220
  14.1647040  45.0936940  51.5989330  14.1367090  43.2596440  54.0981740
  13.8488790  43.7209130  54.8859620  14.9319260  42.7994210  54.3665960
   6.3535490  46.7522560  54.0285710   6.3445590  47.4852250  53.4130220
   5.4333850  46.5054140  54.1212670  14.8936950  35.0945210  55.2576920
  14.2650110  35.1990880  54.5435150  14.3988870  35.3141990  56.0470800
   9.3395090  46.8150800  52.6910900   9.4407070  46.6114790  51.7612880
   8.4396830  46.5609080  52.8958680   6.8620980  37.3731160  56.6734800
   6.1537130  37.8417500  57.1148410   7.1465460  36.7153170  57.3079990
  10.8936410  34.0981820  58.1130590  10.7704190  34.1167950  57.1640100
  11.8420970  34.1460760  58.2328990   7.9813200  49.3337120  57.3858570
   8.2354700  49.2958510  56.4637940   7.0325680  49.2070450  57.3786820
   5.0656000  35.6816240  54.0485510   5.9146530  36.1186390  53.9825700
   4.6987270  35.9936500  54.8757570  13.9865780  40.2529000  58.9617080
  13.0455920  40.2679230  59.1364770  14.3009850  39.4664960  59.4077380
   3.9647420  41.9348600  52.5221040   4.7310690  41.8229960  53.0846470
   4.0422110  41.2386570  51.8697810   2.6594180  39.3673670  53.2053930
   2.7397770  38.4201180  53.3171330   3.5513930  39.6980550  53.3114590
  15.9891360  47.4237850  60.6371340  16.1138780  48.2469020  61.1095150
  16.8556920  47.2128580  60.2895490   3.4608890  49.5169060  60.3088470
   4.1971370  48.9684520  60.5797040   3.8449810  50.3825070  60.1694460
   6.5711200  48.6899370  52.1314040   7.3639810  48.9788200  51.6795830
   6.0515550  48.2591540  51.4526520  15.6241370  47.9169500  53.5550780
  15.3382880  47.5034640  52.7404960  15.4260920  48.8457210  53.4351300
   7.0888600  43.9102780  51.9956390   6.9839240  43.2955130  52.7217770
   6.9212820  43.3868670  51.2119400  10.3291330  42.9722810  52.5998380
   9.7801430  43.4192110  53.2441120  10.9510590  42.4672060  53.1236050
   5.9966450  41.9313730  54.4963680   6.4182870  41.7653600  55.3395070
   6.1217290  41.1213960  54.0018820   8.5094090  40.9551340  51.7440780
   9.0299750  40.2400360  51.3781930   9.1562490  41.5937210  52.0441290
   4.8925350  38.0046960  51.4421840   4.6914410  37.1414320  51.8035180
   4.7217400  37.9180320  50.5043440  12.3713660  32.8155190  53.9708720
  12.6515950  31.9723090  54.3268140  11.5979390  33.0478300  54.4847470
   3.6908150  35.1047580  51.4299720   3.9934050  35.1115010  50.5218870
   4.4302740  34.7545440  51.9267380   6.9093080  34.0482200  52.4155920
   6.5615080  33.3706190  51.8358370   7.1105850  33.5871710  53.2299310
   9.0742120  49.0362950  54.0342520   9.9692910  49.3747920  54.0561280
   9.1059750  48.3142360  53.4066800   2.7138280  44.4090000  52.2629520
   3.1513150  44.9519670  52.9187100   3.1986010  43.5836950  52.2725860
   4.5246000  45.5288040  57.3751750   4.2241540  45.4053010  58.2755660
   4.4183490  44.6696630  56.9667480  17.2937920  45.3084440  52.0778430
  16.4630880  45.3761090  52.5485660  17.4709750  46.1988560  51.7745290
  16.7494380  42.0531920  54.5812630  17.5113290  42.6228570  54.6872320
  16.7648750  41.4859120  55.3520940  17.7554350  42.9082020  59.4254560
  18.1263180  42.1249340  59.0190530  18.3956280  43.5971120  59.2471860
  16.8013550  42.3466290  51.7385150  17.0762390  43.2545170  51.6104370
  16.6124290  42.2828820  52.6747140  13.1989160  35.3711140  53.0338780
  13.6174040  35.1842120  52.1935440  12.8925220  34.5190190  53.3441710
  16.6978890  40.2835280  56.7314580  16.3222490  39.5163210  56.2995870
  15.9682010  40.6657980  57.2189510  15.9729850  38.5092770  60.0321820
  16.4967330  38.0155420  59.4011990  16.5589270  38.6443130  60.7769390
  15.4629820  37.7666120  55.9714230  15.9588940  37.5336990  56.7563110
  15.2645890  36.9277960  55.5551870  16.8916980  36.4027070  58.5051910
  16.7816260  36.2483110  59.4434180  17.6524570  35.8748010  58.2627320
  17.7807250  34.2334990  51.7458050  18.7056560  34.1016170  51.5376340
  17.7583040  34.3127810  52.6994500  17.8545740  35.0045650  54.3714760
  17.0597240  34.9390770  54.9007670  18.0589020  35.9396290  54.3600110
  14.7964160  49.0437200  58.3653150  15.3923230  48.7221770  57.6887570
  15.0542310  48.5709020  59.1566420  15.3476370  49.6932500  62.1950880
  14.8879340  50.4448310  61.8208900  14.7188830  48.9738970  62.1365680
   5.7772090  48.0020740  61.3699010   6.2937110  47.3908100  60.8447270
   6.4269470  48.5049520  61.8610020   8.5167590  48.8929230  62.1967990
   8.8045400  48.6383530  61.3201000   9.0290810  48.3406590  62.7873560
   9.7344600  32.6319430  62.7764500   8.9516390  33.1064930  63.0561260
   9.4407530  31.7274260  62.6677680  14.2865670  33.3342530  60.8213590
  14.7273760  33.2787630  59.9735190  14.0173260  34.2500540  60.8923770
  16.1504240  32.9657770  58.8322410  16.0892640  32.0218990  58.6853430
  16.9296270  33.0737860  59.3775870   7.6198820  35.0506180  58.2880530
   6.8073330  34.6763070  57.9476410   8.1240460  34.2951260  58.5901720
  12.1223800  31.7148630  59.5263600  12.7253170  32.2868840  60.0012120
  11.3816790  32.2788070  59.3037500  15.2658400  32.1170190  54.8003880
  15.4609030  33.0153640  55.0671310  14.4788270  31.8857270  55.2936830
   3.4510160  33.4630960  53.8380190   3.9802920  32.6760760  53.7088140
   4.0838480  34.1422150  54.0715720   5.6448000  33.2006100  56.8925580
   5.0150740  32.4993410  57.0595710   5.1053140  33.9610230  56.6758740
  16.8185010  49.3570900  56.5610440  16.9937200  48.6708640  55.9171360
  16.1206580  49.8817950  56.1687110   4.6612660  49.7465740  54.1145750
   5.3931480  49.4625020  53.5669640   4.9206330  49.5079020  55.0045130
   3.8227450  45.8630470  54.1192080   3.1936330  46.3315570  54.6677910
   3.9375280  45.0179690  54.5538270  11.2777170  39.9136130  40.2693280
  11.1971220  38.9990740  39.9984990  10.8641590  40.4103200  39.5632990
   9.4095210  41.6915150  42.1502550   8.6337310  41.2115590  42.4401120
  10.0608140  41.0120800  41.9758710   3.4261040  42.0034960  43.0278310
   2.5945920  41.7483670  43.4274820   4.0342020  42.0745730  43.7636230
  13.4302640  46.0975340  40.9301680  12.9684170  45.3262580  41.2588850
  14.2428190  46.1241410  41.4354130   3.4062300  46.0375050  43.2236330
   3.7090340  45.1472790  43.0446550   4.1505890  46.5945270  42.9958580
   9.6565950  48.3833350  40.5505670   9.0377390  48.8390850  39.9800110
  10.5117730  48.5384810  40.1495370   8.8504200  44.3672340  42.1572710
   8.7812480  43.4262280  41.9961840   9.6124060  44.4573750  42.7295280
   9.8809370  37.1742720  42.3841640  10.2574190  36.3014600  42.2715310
   9.7828880  37.5101420  41.4932080   4.0114380  35.5468350  37.8459080
   4.1181130  36.4472080  38.1527840   3.1006740  35.4986320  37.5553730
  13.6633490  34.6693160  39.3169980  14.4843110  34.1789730  39.3595460
  13.6967570  35.2590820  40.0701820   5.8522110  38.5154720  42.1784260
   6.3600330  39.0135690  42.8189280   6.3835350  37.7389920  42.0023620
  17.9533040  36.6859910  45.8813610  17.2485210  37.0741620  45.3628720
  18.2190960  37.3810200  46.4834540   4.1358210  33.1553280  46.4447680
   4.1376650  33.6725670  45.6393580   3.3062520  32.6783460  46.4217610
  10.5229300  43.2672590  37.9437580   9.9046570  43.7322040  37.3800300
  11.0352550  43.9600070  38.3607090   5.3861060  42.7948460  44.6221180
   5.0530440  43.4217380  45.2642250   5.5627740  43.3210340  43.8422850
  13.8994970  36.6093540  42.0897520  13.1950540  36.8978430  42.6700630
  14.2607130  37.4193650  41.7297080   3.8173540  34.8663240  44.4518130
   4.1590350  35.7105290  44.1572000   2.8789350  35.0146980  44.5683470
   4.5980160  44.7629260  46.4370360   5.2154160  45.4380340  46.1554810
   3.7373280  45.1717240  46.3457860  15.5157750  46.2268670  44.3525000
  14.8321270  46.8967780  44.3441670  16.0552040  46.4249320  43.5869860
  16.9681890  36.0548330  42.4806730  16.0206800  36.0887310  42.6122160
  17.2931880  36.8687280  42.8656090   7.5001430  32.3545510  40.7762720
   7.8076410  31.7992400  40.0598220   6.5702130  32.4889970  40.5935710
  13.0516490  48.0712800  43.0670180  13.0643650  47.6675090  42.1992440
  12.4991710  48.8460090  42.9631610  14.3461910  44.7929020  38.1560350
  14.2358240  43.8503350  38.2809770  14.3430160  45.1544660  39.0423110
  12.4501930  42.9742640  44.3952790  12.8670720  42.7602750  43.5606250
  13.1741750  43.2315430  44.9661410   9.8882190  40.4194340  37.5122840
   8.9611470  40.3531720  37.7411310  10.0407010  41.3574470  37.3978080
   9.8751270  36.6911340  34.5090000   8.9354940  36.8525300  34.5942460
  10.1934530  37.4097020  33.9625990  16.3964030  41.3729860  44.4869030
  15.5682660  41.4422950  44.0119160  16.9914510  41.9584170  44.0184860
  13.9179480  41.9814640  38.0158090  13.2991900  41.6434190  37.3684390
  13.9003930  41.3374400  38.7237280  13.3606040  38.1599180  45.4323900
  12.9477220  38.9852890  45.6863890  12.6281990  37.5744220  45.2400260
   5.4938830  40.9459080  40.2942570   5.0895830  40.2336330  39.7988470
   5.5801950  40.6012320  41.1830610   5.9620530  44.6326640  42.4581780
   5.6648820  44.0272110  41.7789560   6.9120350  44.6703950  42.3471140
   4.2067450  37.7202290  44.0741610   4.7582040  37.8297630  43.2994860
   4.7210960  38.0939890  44.7896840  14.0506140  48.2058510  46.1204880
  13.5736700  49.0130700  45.9277490  13.3667930  47.5536840  46.2731090
   5.0538960  44.3708330  49.1089580   4.1567490  44.5948300  49.3562980
   5.0791830  44.4943270  48.1600980  12.0944180  41.2201450  35.0230840
  12.5337460  40.3823880  34.8768660  12.8072600  41.8530850  35.1094980
   3.8810180  41.2421650  47.6846950   3.7417950  42.1144450  48.0534350
   2.9991540  40.8994460  47.5394890  10.2039560  46.1597520  38.9912080
  10.6435470  46.9021850  38.5767470  10.1426450  46.4024090  39.9151040
   5.6790530  47.1843350  49.8932100   5.6505960  47.5886300  49.0260530
   5.5155500  46.2553710  49.7303700  15.6761320  32.4744260  33.3371880
  15.3633980  32.5671090  34.2370950  16.4373790  33.0525290  33.2869310
   2.1943460  39.8404060  37.7949220   2.0741060  40.5666150  37.1830490
   1.8844350  39.0706970  37.3177130  17.6305350  47.9670450  51.1896270
  18.1065070  48.4453340  51.8685350  18.2512510  47.8987940  50.4641770
  17.0338600  45.1583300  48.3496280  17.1601660  44.9195180  47.4313460
  17.0759980  44.3267840  48.8218360  10.8955340  48.8611300  46.9191090
  11.4100010  48.7719310  47.7213520  10.0524420  49.2071000  47.2119000
  12.8709740  49.1466640  36.3475090  12.7110880  48.8569580  37.2456920
  12.7056450  48.3706770  35.8120320   5.3498120  48.9265170  38.1246710
   5.1740600  48.0100710  37.9114510   4.4953860  49.2852460  38.3644510
  12.5735870  46.6554200  34.9073090  11.8801030  46.6531490  34.2475370
  13.3158730  46.2313520  34.4767260  12.1385800  48.2816910  38.9821580
  12.5942750  47.5006290  39.2960200  12.4778320  48.9923730  39.5262760
  16.8862610  37.2115760  49.3146020  16.2706880  37.7195430  48.7861480
  16.5659030  36.3114090  49.2571960   4.6607120  33.1839130  41.1772890
   4.2175270  33.9648670  40.8457410   5.2192110  33.5069020  41.8843830
   8.9476930  36.0507650  46.7808210   8.4856300  36.2590670  47.5928150
   8.5455040  35.2367000  46.4778880  13.9481440  37.2716600  47.9104870
  13.0975030  36.9722350  48.2313940  13.7883230  37.5158610  46.9988690
  11.0431150  38.7718350  50.0103660  11.3684560  37.9382100  49.6705890
  11.8311480  39.2946870  50.1581990   7.7765940  32.8049830  36.0578720
   7.1520120  32.8009700  36.7832030   7.6896060  31.9380790  35.6614690
   6.6983020  33.7286460  43.0362490   6.9955350  34.6349290  42.9554510
   7.2468580  33.2405240  42.4222060   4.4521340  38.3072700  38.9054140
   4.2262260  38.0909870  39.8100760   3.6713870  38.7401160  38.5600110
  11.6819100  38.3136070  37.5044790  11.0827990  39.0371870  37.3208410
  12.2298710  38.2512850  36.7221240   6.8920550  39.2058280  49.5714410
   6.7964150  38.2653010  49.4214810   7.7352530  39.4273350  49.1762480
  10.2883970  36.9499610  39.5348070  10.6813540  37.2671810  38.7216760
  10.6500820  36.0711490  39.6492590   8.5976140  35.7006920  50.7944930
   7.9074460  35.5079120  51.4291020   9.3408440  35.9841560  51.3269230
  10.8739110  39.5405360  43.6298850  10.1420230  40.0492170  43.9788950
  10.4763450  38.7235340  43.3287630   7.3116500  36.2159560  42.0351340
   7.3152560  35.7749510  41.1855880   8.2067620  36.5376890  42.1423160
   3.1618880  36.0986050  40.9945550   2.8218930  36.5761280  41.7512600
   2.3996200  35.6451170  40.6346650   7.3736650  37.2171640  35.0258100
   7.4949470  37.1758120  35.9743920   6.9885160  38.0795790  34.8704830
  11.3365020  34.9939040  43.0421790  11.3537760  35.4447690  43.8863640
  11.0880600  34.0944680  43.2555230   6.3858150  39.5272780  34.4241400
   5.8175050  39.0791030  33.7977310   7.0947150  39.8865560  33.8906550
  14.7635770  32.4071220  48.8808170  15.0881540  31.6760880  49.4066150
  14.7992280  32.0884860  47.9789160   7.6124470  40.2761340  43.7816750
   7.9794600  39.8019910  44.5278090   7.4229530  41.1502910  44.1225090
   5.4023840  39.3169980  46.1000960   5.0980910  40.1961960  46.3251320
   6.3570300  39.3769770  46.1358400   3.9305630  43.5230970  36.6967810
   3.1567890  42.9828590  36.5366530   4.6600260  43.0037580  36.3585570
  14.6893610  42.5196330  42.4894200  15.4092730  43.0151620  42.0990310
  14.4875430  41.8414220  41.8448070  10.1503550  33.9134290  36.6323590
   9.3368160  33.4147460  36.5568900   9.9565500  34.7532540  36.2159940
  10.0712410  42.5905390  48.3763200  10.0049720  41.6701060  48.1220790
   9.4417550  42.6880830  49.0907840  12.8651940  38.2853940  34.9285750
  13.7531560  38.5971170  34.7537090  12.8357030  37.4126190  34.5366330
   3.9743030  43.1911350  40.3346620   4.4921700  42.3879610  40.2803510
   3.5227050  43.1290490  41.1763450   8.8612530  44.4577630  35.6073920
   9.2028230  45.2019860  35.1117240   8.0325240  44.7708750  35.9698750
   4.6600690  40.6156960  50.1311870   4.3600830  40.7614140  49.2339690
   5.4311930  40.0562250  50.0385260  10.0029140  45.4125960  48.1267000
  10.0173680  44.4806920  47.9085910   9.2954240  45.4985720  48.7656770
  15.1366210  39.5965780  34.3965610  15.0529930  40.0280000  33.5462050
  15.8560400  40.0564130  34.8292430  16.2140350  42.0533300  47.4735580
  15.4888540  42.6462080  47.2764970  16.7415810  42.0456840  46.6748950
  16.1653460  46.4508040  37.1247740  15.5229620  45.7963660  37.3991460
  15.7784120  46.8563130  36.3488410  11.7439940  43.7793470  40.9719430
  12.0963760  43.1821600  40.3120800  10.8602270  43.4537700  41.1427680
   7.8303220  44.5391160  38.3789840   8.5174350  45.0860370  38.7597430
   7.0435640  45.0831890  38.4139450   7.1330430  41.5437190  37.9915200
   7.5893210  42.3542440  38.2175390   6.7818640  41.2260330  38.8233690
   9.4363040  47.0543530  45.2207500  10.0805260  47.2602910  45.8980920
   9.7992480  46.2931930  44.7678350   3.0342210  31.8874840  38.4637720
   2.9056840  31.8792740  39.4122640   2.2104230  32.2257930  38.1128730
  10.7095120  45.0575880  43.9384950  11.3517350  44.3569040  44.0517120
  11.2344470  45.8374320  43.7581840  14.5550840  45.3424500  33.6624090
  14.3288420  44.6254940  34.2548730  14.1647040  45.0936940  32.8245840
  12.4832740  45.8570780  47.1421010  12.8188980  46.4437470  47.8198930
  11.5633080  45.7263490  47.3718800  14.1367090  43.2596440  35.3238250
  13.8488790  43.7209130  36.1116130  14.9319260  42.7994210  35.5922470
   8.3121320  45.9062110  50.3109070   7.9918190  45.1871350  50.8554760
   7.6379680  46.5817180  50.3845130   6.3535490  46.7522560  35.2542220
   6.3445590  47.4852250  34.6386730   5.4333850  46.5054140  35.3469180
  11.5274920  36.1388270  45.6745870  11.8955740  35.3183480  46.0025440
  10.6673120  36.1990160  46.0901520  14.8936950  35.0945210  36.4833430
  14.2650110  35.1990880  35.7691660  14.3988870  35.3141990  37.2727310
   9.3395090  46.8150800  33.9167410   9.4407070  46.6114790  32.9869390
   8.4396830  46.5609080  34.1215190   6.8620980  37.3731160  37.8991310
   6.1537130  37.8417500  38.3404920   7.1465460  36.7153170  38.5336500
   8.4876910  38.7927860  45.8983840   8.9862160  39.2673680  46.5635690
   8.6299860  37.8691380  46.1053870  10.8936410  34.0981820  39.3387100
  10.7704190  34.1167950  38.3896610  11.8420970  34.1460760  39.4585500
   7.9813200  49.3337120  38.6115080   8.2354700  49.2958510  37.6894450
   7.0325680  49.2070450  38.6043330   5.0656000  35.6816240  35.2742020
   5.9146530  36.1186390  35.2082210   4.6987270  35.9936500  36.1014080
  15.6943770  35.0095820  46.7412230  15.1917370  35.7501220  47.0806040
  16.5100430  35.3979820  46.4249020  13.9865780  40.2529000  40.1873590
  13.0455920  40.2679230  40.3621280  14.3009850  39.4664960  40.6333890
   3.9647420  41.9348600  33.7477550   4.7310690  41.8229960  34.3102980
   4.0422110  41.2386570  33.0954320   2.6594180  39.3673670  34.4310440
   2.7397770  38.4201180  34.5427840   3.5513930  39.6980550  34.5371100
  15.9891360  47.4237850  41.8627850  16.1138780  48.2469020  42.3351660
  16.8556920  47.2128580  41.5152000   3.4608890  49.5169060  41.5344980
   4.1971370  48.9684520  41.8053550   3.8449810  50.3825070  41.3950970
   2.4667170  48.7015130  50.7230560   3.2679900  49.0227180  51.1365960
   1.9518990  48.3410710  51.4450470   6.5711200  48.6899370  33.3570550
   7.3639810  48.9788200  32.9052340   6.0515550  48.2591540  32.6783030
  11.3031800  44.8095000  50.6705970  10.6969960  44.8326600  49.9301720
  10.9985910  44.0778040  51.2073220  12.7332170  48.5375290  49.2815380
  13.6853920  48.4533310  49.2315620  12.5860390  49.2017000  49.9549170
  15.6241370  47.9169500  34.7807290  15.3382880  47.5034640  33.9661470
  15.4260920  48.8457210  34.6607810   7.0888600  43.9102780  33.2212900
   6.9839240  43.2955130  33.9474280   6.9212820  43.3868670  32.4375910
   7.2402920  42.5959580  49.2002130   6.4748590  43.1644580  49.1156800
   7.4218880  42.3035790  48.3070360  10.3291330  42.9722810  33.8254890
   9.7801430  43.4192110  34.4697630  10.9510590  42.4672060  34.3492560
  14.3826270  44.3264910  49.7577150  15.1235740  44.6640670  49.2544610
  13.6198950  44.4956970  49.2046920   2.2188060  39.3318180  50.5616680
   2.2593400  39.0332050  51.4701910   3.0733560  39.7325790  50.4024200
   5.9966450  41.9313730  35.7220190   6.4182870  41.7653600  36.5651580
   6.1217290  41.1213960  35.2275330   4.1593870  37.9110280  48.5291170
   3.6290330  37.4201230  47.9014510   4.8281940  38.3394480  47.9949100
   8.5094090  40.9551340  32.9697290   9.0299750  40.2400360  32.6038440
   9.1562490  41.5937210  33.2697800  13.0571930  42.3779740  48.2932360
  13.4712950  42.5324820  49.1422780  12.1222930  42.5034960  48.4558140
  13.5294100  39.7175900  50.2971510  14.1114870  38.9628220  50.2091990
  13.7055870  40.2483340  49.5202990   4.6466170  34.8772650  48.6088460
   4.5523040  34.2593400  47.8839330   4.0663560  35.6038940  48.3818370
   7.4127610  33.4345890  45.6415850   6.9644910  33.4570150  44.7961400
   6.7792810  33.0364910  46.2386150   7.8187160  42.3300220  46.2628290
   8.2375270  43.1732950  46.0904530   6.8995790  42.4672260  46.0335070
  10.1551060  40.0616400  47.6466130  10.2747270  39.4657540  48.3860970
  11.0145060  40.0986090  47.2267430  12.4938960  40.6153590  46.2228640
  11.9674180  41.1396210  45.6193780  12.8370300  41.2480980  46.8538370
   4.8925350  38.0046960  32.6678350   4.6914410  37.1414320  33.0291690
   4.7217400  37.9180320  31.7299950   5.6694580  48.6353230  47.3786020
   5.1315670  49.3599290  47.0594720   5.9228540  48.1583570  46.5883360
   6.9219830  36.6037750  48.9041950   7.5119520  36.2953600  49.5919770
   6.1040070  36.1317500  49.0601850  11.7413260  36.2203560  49.1374970
  11.0528780  35.5585100  49.0724960  12.4619280  35.7741830  49.5823430
  12.3713660  32.8155190  35.1965230  12.6515950  31.9723090  35.5524650
  11.5979390  33.0478300  35.7103980   3.6908150  35.1047580  32.6556230
   3.9934050  35.1115010  31.7475380   4.4302740  34.7545440  33.1523890
   8.5256790  49.8704440  47.6372670   8.4515490  50.7739580  47.9445040
   7.6235630  49.5516340  47.6094740   6.9093080  34.0482200  33.6412430
   6.5615080  33.3706190  33.0614880   7.1105850  33.5871710  34.4555820
   9.0742120  49.0362950  35.2599030   9.9692910  49.3747920  35.2817790
   9.1059750  48.3142360  34.6323310   2.7138280  44.4090000  33.4886030
   3.1513150  44.9519670  34.1443610   3.1986010  43.5836950  33.4982370
   4.5246000  45.5288040  38.6008260   4.2241540  45.4053010  39.5012170
   4.4183490  44.6696630  38.1923990  16.0536470  47.5666620  47.9665230
  15.4538460  47.6259180  47.2229150  16.1830370  46.6271600  48.0962080
  17.2937920  45.3084440  33.3034940  16.4630880  45.3761090  33.7742170
  17.4709750  46.1988560  33.0001800  16.7494380  42.0531920  35.8069140
  17.5113290  42.6228570  35.9128830  16.7648750  41.4859120  36.5777450
  17.7554350  42.9082020  40.6511070  18.1263180  42.1249340  40.2447040
  18.3956280  43.5971120  40.4728370  14.7388110  44.2918600  46.0641390
  13.9247950  44.7215760  46.3267180  15.1462310  44.9037010  45.4510440
  16.8013550  42.3466290  32.9641660  17.0762390  43.2545170  32.8360880
  16.6124290  42.2828820  33.9003650  13.1989160  35.3711140  34.2595290
  13.6174040  35.1842120  33.4191950  12.8925220  34.5190190  34.5698220
  16.6978890  40.2835280  37.9571090  16.3222490  39.5163210  37.5252380
  15.9682010  40.6657980  38.4446020  16.0878510  39.4306800  47.5910610
  15.8564600  39.2019550  46.6908560  16.3483060  40.3506350  47.5455500
  14.5266580  34.6563230  50.3690310  15.4036760  34.6646630  50.7524310
  14.5387420  33.9194070  49.7582660  15.9729850  38.5092770  41.2578330
  16.4967330  38.0155420  40.6268500  16.5589270  38.6443130  42.0025900
  16.1519570  38.5932640  44.7797880  15.2022280  38.5596180  44.8942870
  16.3332580  39.5032750  44.5447650  15.4629820  37.7666120  37.1970740
  15.9588940  37.5336990  37.9819620  15.2645890  36.9277960  36.7808380
  16.8916980  36.4027070  39.7308420  16.7816260  36.2483110  40.6690690
  17.6524570  35.8748010  39.4883830  15.2382700  32.3421200  46.1891420
  15.8754920  32.9555340  46.5550610  15.3857590  32.3781860  45.2440650
  14.7964160  49.0437200  39.5909660  15.3923230  48.7221770  38.9144080
  15.0542310  48.5709020  40.3822930   2.7026730  45.4755110  49.7400290
   2.6596360  45.1048020  50.6214750   2.8337740  46.4132680  49.8802110
   6.4032760  47.0314700  45.3410010   6.1624120  47.2989260  44.4540530
   7.3435400  47.2020430  45.3960870   8.6087180  33.4947390  49.0966520
   8.5476070  34.0869220  49.8461930   9.5487560  33.3873350  48.9516780
  11.2461740  33.1517450  48.7358810  11.8602150  33.4696740  48.0739890
  11.7911300  32.6666040  49.3554670  17.6636920  49.0509080  46.1420650
  17.1695200  49.4477950  45.4247780  17.0550210  48.4258290  46.5357930
   1.7683000  31.8311710  48.8497870   2.3165990  31.6499760  48.0863980
   1.8338310  31.0405820  49.3854180   2.5414760  48.4217360  46.8598070
   1.9475080  48.2902060  47.5988110   2.5338600  47.5855500  46.3940170
  11.9869780  31.7149590  45.0628100  11.1129620  32.0484700  44.8601030
  11.8780530  31.2422770  45.8879970  12.8941760  33.9220460  46.4469820
  12.5655120  33.1072220  46.0671550  13.8424060  33.8790270  46.3235510
  15.3476370  49.6932500  43.4207390  14.8879340  50.4448310  43.0465410
  14.7188830  48.9738970  43.3622190   5.7772090  48.0020740  42.5955520
   6.2937110  47.3908100  42.0703780   6.4269470  48.5049520  43.0866530
   8.5167590  48.8929230  43.4224500   8.8045400  48.6383530  42.5457510
   9.0290810  48.3406590  44.0130070   9.7344600  32.6319430  44.0021010
   8.9516390  33.1064930  44.2817770   9.4407530  31.7274260  43.8934190
   7.6198820  35.0506180  39.5137040   6.8073330  34.6763070  39.1732920
   8.1240460  34.2951260  39.8158230  12.1223800  31.7148630  40.7520110
  12.7253170  32.2868840  41.2268630  11.3816790  32.2788070  40.5294010
   3.4510160  33.4630960  35.0636700   3.9802920  32.6760760  34.9344650
   4.0838480  34.1422150  35.2972230   5.6448000  33.2006100  38.1182090
   5.0150740  32.4993410  38.2852220   5.1053140  33.9610230  37.9015250
   8.5839950  49.8145330  50.7892700   9.5107260  49.5789600  50.8328660
   8.5690380  50.6417330  50.3078730  16.8185010  49.3570900  37.7866950
  16.9937200  48.6708640  37.1427870  16.1206580  49.8817950  37.3943620
   5.7703560  32.4790080  50.5534580   5.4887830  32.9823680  49.7895400
   6.1523260  31.6811830  50.1876710   4.6612660  49.7465740  35.3402260
   5.3931480  49.4625020  34.7926150   4.9206330  49.5079020  36.2301640
   3.8227450  45.8630470  35.3448590   3.1936330  46.3315570  35.8934420
   3.9375280  45.0179690  35.7794780  12.3719020  31.8943660  51.1315050
  12.2584470  32.2138270  52.0266570  13.1888760  32.2956170  50.8352330
  15.1517510  49.0415190  50.6133740  15.9442830  48.5464420  50.4059700
  15.4450660  49.7205330  51.2209350  11.2777170  39.9136130  21.4949790
  11.1971220  38.9990740  21.2241500  10.8641590  40.4103200  20.7889500
   9.4095210  41.6915150  23.3759060   8.6337310  41.2115590  23.6657630
  10.0608140  41.0120800  23.2015220   3.4261040  42.0034960  24.2534820
   2.5945920  41.7483670  24.6531330   4.0342020  42.0745730  24.9892740
  13.4302640  46.0975340  22.1558190  12.9684170  45.3262580  22.4845360
  14.2428190  46.1241410  22.6610640   3.4062300  46.0375050  24.4492840
   3.7090340  45.1472790  24.2703060   4.1505890  46.5945270  24.2215090
   9.6565950  48.3833350  21.7762180   9.0377390  48.8390850  21.2056620
  10.5117730  48.5384810  21.3751880   8.8504200  44.3672340  23.3829220
   8.7812480  43.4262280  23.2218350   9.6124060  44.4573750  23.9551790
   9.8809370  37.1742720  23.6098150  10.2574190  36.3014600  23.4971820
   9.7828880  37.5101420  22.7188590   4.0114380  35.5468350  19.0715590
   4.1181130  36.4472080  19.3784350   3.1006740  35.4986320  18.7810240
  13.6633490  34.6693160  20.5426490  14.4843110  34.1789730  20.5851970
  13.6967570  35.2590820  21.2958330   5.8522110  38.5154720  23.4040770
   6.3600330  39.0135690  24.0445790   6.3835350  37.7389920  23.2280130
  17.9533040  36.6859910  27.1070120  17.2485210  37.0741620  26.5885230
  18.2190960  37.3810200  27.7091050   4.1358210  33.1553280  27.6704190
   4.1376650  33.6725670  26.8650090   3.3062520  32.6783460  27.6474120
  10.5229300  43.2672590  19.1694090   9.9046570  43.7322040  18.6056810
  11.0352550  43.9600070  19.5863600   5.3861060  42.7948460  25.8477690
   5.0530440  43.4217380  26.4898760   5.5627740  43.3210340  25.0679360
  13.8994970  36.6093540  23.3154030  13.1950540  36.8978430  23.8957140
  14.2607130  37.4193650  22.9553590   3.8173540  34.8663240  25.6774640
   4.1590350  35.7105290  25.3828510   2.8789350  35.0146980  25.7939980
   4.5980160  44.7629260  27.6626870   5.2154160  45.4380340  27.3811320
   3.7373280  45.1717240  27.5714370  15.5157750  46.2268670  25.5781510
  14.8321270  46.8967780  25.5698180  16.0552040  46.4249320  24.8126370
  16.9681890  36.0548330  23.7063240  16.0206800  36.0887310  23.8378670
  17.2931880  36.8687280  24.0912600   7.5001430  32.3545510  22.0019230
   7.8076410  31.7992400  21.2854730   6.5702130  32.4889970  21.8192220
  13.0516490  48.0712800  24.2926690  13.0643650  47.6675090  23.4248950
  12.4991710  48.8460090  24.1888120  14.3461910  44.7929020  19.3816860
  14.2358240  43.8503350  19.5066280  14.3430160  45.1544660  20.2679620
  12.4501930  42.9742640  25.6209300  12.8670720  42.7602750  24.7862760
  13.1741750  43.2315430  26.1917920   9.8882190  40.4194340  18.7379350
   8.9611470  40.3531720  18.9667820  10.0407010  41.3574470  18.6234590
   9.8751270  36.6911340  15.7346510   8.9354940  36.8525300  15.8198970
  10.1934530  37.4097020  15.1882500  16.3964030  41.3729860  25.7125540
  15.5682660  41.4422950  25.2375670  16.9914510  41.9584170  25.2441370
  13.9179480  41.9814640  19.2414600  13.2991900  41.6434190  18.5940900
  13.9003930  41.3374400  19.9493790  13.3606040  38.1599180  26.6580410
  12.9477220  38.9852890  26.9120400  12.6281990  37.5744220  26.4656770
   5.4938830  40.9459080  21.5199080   5.0895830  40.2336330  21.0244980
   5.5801950  40.6012320  22.4087120   5.9620530  44.6326640  23.6838290
   5.6648820  44.0272110  23.0046070   6.9120350  44.6703950  23.5727650
   4.2067450  37.7202290  25.2998120   4.7582040  37.8297630  24.5251370
   4.7210960  38.0939890  26.0153350  14.0506140  48.2058510  27.3461390
  13.5736700  49.0130700  27.1534000  13.3667930  47.5536840  27.4987600
   5.0538960  44.3708330  30.3346090   4.1567490  44.5948300  30.5819490
   5.0791830  44.4943270  29.3857490  12.0944180  41.2201450  16.2487350
  12.5337460  40.3823880  16.1025170  12.8072600  41.8530850  16.3351490
   3.8810180  41.2421650  28.9103460   3.7417950  42.1144450  29.2790860
   2.9991540  40.8994460  28.7651400  10.2039560  46.1597520  20.2168590
  10.6435470  46.9021850  19.8023980  10.1426450  46.4024090  21.1407550
   5.6790530  47.1843350  31.1188610   5.6505960  47.5886300  30.2517040
   5.5155500  46.2553710  30.9560210  15.6761320  32.4744260  14.5628390
  15.3633980  32.5671090  15.4627460  16.4373790  33.0525290  14.5125820
   2.1943460  39.8404060  19.0205730   2.0741060  40.5666150  18.4087000
   1.8844350  39.0706970  18.5433640  17.6305350  47.9670450  32.4152780
  18.1065070  48.4453340  33.0941860  18.2512510  47.8987940  31.6898280
  17.0338600  45.1583300  29.5752790  17.1601660  44.9195180  28.6569970
  17.0759980  44.3267840  30.0474870  10.8955340  48.8611300  28.1447600
  11.4100010  48.7719310  28.9470030  10.0524420  49.2071000  28.4375510
  12.8709740  49.1466640  17.5731600  12.7110880  48.8569580  18.4713430
  12.7056450  48.3706770  17.0376830   5.3498120  48.9265170  19.3503220
   5.1740600  48.0100710  19.1371020   4.4953860  49.2852460  19.5901020
  12.5735870  46.6554200  16.1329600  11.8801030  46.6531490  15.4731880
  13.3158730  46.2313520  15.7023770  12.1385800  48.2816910  20.2078090
  12.5942750  47.5006290  20.5216710  12.4778320  48.9923730  20.7519270
  16.8862610  37.2115760  30.5402530  16.2706880  37.7195430  30.0117990
  16.5659030  36.3114090  30.4828470   4.6607120  33.1839130  22.4029400
   4.2175270  33.9648670  22.0713920   5.2192110  33.5069020  23.1100340
   8.9476930  36.0507650  28.0064720   8.4856300  36.2590670  28.8184660
   8.5455040  35.2367000  27.7035390  13.9481440  37.2716600  29.1361380
  13.0975030  36.9722350  29.4570450  13.7883230  37.5158610  28.2245200
  11.0431150  38.7718350  31.2360170  11.3684560  37.9382100  30.8962400
  11.8311480  39.2946870  31.3838500   7.7765940  32.8049830  17.2835230
   7.1520120  32.8009700  18.0088540   7.6896060  31.9380790  16.8871200
   6.6983020  33.7286460  24.2619000   6.9955350  34.6349290  24.1811020
   7.2468580  33.2405240  23.6478570   4.4521340  38.3072700  20.1310650
   4.2262260  38.0909870  21.0357270   3.6713870  38.7401160  19.7856620
  11.6819100  38.3136070  18.7301300  11.0827990  39.0371870  18.5464920
  12.2298710  38.2512850  17.9477750   6.8920550  39.2058280  30.7970920
   6.7964150  38.2653010  30.6471320   7.7352530  39.4273350  30.4018990
  10.2883970  36.9499610  20.7604580  10.6813540  37.2671810  19.9473270
  10.6500820  36.0711490  20.8749100   8.5976140  35.7006920  32.0201440
   7.9074460  35.5079120  32.6547530   9.3408440  35.9841560  32.5525740
  10.8739110  39.5405360  24.8555360  10.1420230  40.0492170  25.2045460
  10.4763450  38.7235340  24.5544140   7.3116500  36.2159560  23.2607850
   7.3152560  35.7749510  22.4112390   8.2067620  36.5376890  23.3679670
   3.1618880  36.0986050  22.2202060   2.8218930  36.5761280  22.9769110
   2.3996200  35.6451170  21.8603160   7.3736650  37.2171640  16.2514610
   7.4949470  37.1758120  17.2000430   6.9885160  38.0795790  16.0961340
  11.3365020  34.9939040  24.2678300  11.3537760  35.4447690  25.1120150
  11.0880600  34.0944680  24.4811740   6.3858150  39.5272780  15.6497910
   5.8175050  39.0791030  15.0233820   7.0947150  39.8865560  15.1163060
  14.7635770  32.4071220  30.1064680  15.0881540  31.6760880  30.6322660
  14.7992280  32.0884860  29.2045670   7.6124470  40.2761340  25.0073260
   7.9794600  39.8019910  25.7534600   7.4229530  41.1502910  25.3481600
   5.4023840  39.3169980  27.3257470   5.0980910  40.1961960  27.5507830
   6.3570300  39.3769770  27.3614910   3.9305630  43.5230970  17.9224320
   3.1567890  42.9828590  17.7623040   4.6600260  43.0037580  17.5842080
  14.6893610  42.5196330  23.7150710  15.4092730  43.0151620  23.3246820
  14.4875430  41.8414220  23.0704580  10.1503550  33.9134290  17.8580100
   9.3368160  33.4147460  17.7825410   9.9565500  34.7532540  17.4416450
  10.0712410  42.5905390  29.6019710  10.0049720  41.6701060  29.3477300
   9.4417550  42.6880830  30.3164350  12.8651940  38.2853940  16.1542260
  13.7531560  38.5971170  15.9793600  12.8357030  37.4126190  15.7622840
   3.9743030  43.1911350  21.5603130   4.4921700  42.3879610  21.5060020
   3.5227050  43.1290490  22.4019960   8.8612530  44.4577630  16.8330430
   9.2028230  45.2019860  16.3373750   8.0325240  44.7708750  17.1955260
   4.6600690  40.6156960  31.3568380   4.3600830  40.7614140  30.4596200
   5.4311930  40.0562250  31.2641770  10.0029140  45.4125960  29.3523510
  10.0173680  44.4806920  29.1342420   9.2954240  45.4985720  29.9913280
  15.1366210  39.5965780  15.6222120  15.0529930  40.0280000  14.7718560
  15.8560400  40.0564130  16.0548940  16.2140350  42.0533300  28.6992090
  15.4888540  42.6462080  28.5021480  16.7415810  42.0456840  27.9005460
  16.1653460  46.4508040  18.3504250  15.5229620  45.7963660  18.6247970
  15.7784120  46.8563130  17.5744920  11.7439940  43.7793470  22.1975940
  12.0963760  43.1821600  21.5377310  10.8602270  43.4537700  22.3684190
   7.8303220  44.5391160  19.6046350   8.5174350  45.0860370  19.9853940
   7.0435640  45.0831890  19.6395960   7.1330430  41.5437190  19.2171710
   7.5893210  42.3542440  19.4431900   6.7818640  41.2260330  20.0490200
   9.4363040  47.0543530  26.4464010  10.0805260  47.2602910  27.1237430
   9.7992480  46.2931930  25.9934860   3.0342210  31.8874840  19.6894230
   2.9056840  31.8792740  20.6379150   2.2104230  32.2257930  19.3385240
  10.7095120  45.0575880  25.1641460  11.3517350  44.3569040  25.2773630
  11.2344470  45.8374320  24.9838350  14.5550840  45.3424500  14.8880600
  14.3288420  44.6254940  15.4805240  14.1647040  45.0936940  14.0502350
  12.4832740  45.8570780  28.3677520  12.8188980  46.4437470  29.0455440
  11.5633080  45.7263490  28.5975310  14.1367090  43.2596440  16.5494760
  13.8488790  43.7209130  17.3372640  14.9319260  42.7994210  16.8178980
   8.3121320  45.9062110  31.5365580   7.9918190  45.1871350  32.0811270
   7.6379680  46.5817180  31.6101640   6.3535490  46.7522560  16.4798730
   6.3445590  47.4852250  15.8643240   5.4333850  46.5054140  16.5725690
  11.5274920  36.1388270  26.9002380  11.8955740  35.3183480  27.2281950
  10.6673120  36.1990160  27.3158030  14.8936950  35.0945210  17.7089940
  14.2650110  35.1990880  16.9948170  14.3988870  35.3141990  18.4983820
   9.3395090  46.8150800  15.1423920   9.4407070  46.6114790  14.2125900
   8.4396830  46.5609080  15.3471700   6.8620980  37.3731160  19.1247820
   6.1537130  37.8417500  19.5661430   7.1465460  36.7153170  19.7593010
   8.4876910  38.7927860  27.1240350   8.9862160  39.2673680  27.7892200
   8.6299860  37.8691380  27.3310380  10.8936410  34.0981820  20.5643610
  10.7704190  34.1167950  19.6153120  11.8420970  34.1460760  20.6842010
   7.9813200  49.3337120  19.8371590   8.2354700  49.2958510  18.9150960
   7.0325680  49.2070450  19.8299840   5.0656000  35.6816240  16.4998530
   5.9146530  36.1186390  16.4338720   4.6987270  35.9936500  17.3270590
  15.6943770  35.0095820  27.9668740  15.1917370  35.7501220  28.3062550
  16.5100430  35.3979820  27.6505530  13.9865780  40.2529000  21.4130100
  13.0455920  40.2679230  21.5877790  14.3009850  39.4664960  21.8590400
   3.9647420  41.9348600  14.9734060   4.7310690  41.8229960  15.5359490
   4.0422110  41.2386570  14.3210830   2.6594180  39.3673670  15.6566950
   2.7397770  38.4201180  15.7684350   3.5513930  39.6980550  15.7627610
  15.9891360  47.4237850  23.0884360  16.1138780  48.2469020  23.5608170
  16.8556920  47.2128580  22.7408510   3.4608890  49.5169060  22.7601490
   4.1971370  48.9684520  23.0310060   3.8449810  50.3825070  22.6207480
   2.4667170  48.7015130  31.9487070   3.2679900  49.0227180  32.3622470
   1.9518990  48.3410710  32.6706980   6.5711200  48.6899370  14.5827060
   7.3639810  48.9788200  14.1308850   6.0515550  48.2591540  13.9039540
  11.3031800  44.8095000  31.8962480  10.6969960  44.8326600  31.1558230
  10.9985910  44.0778040  32.4329730  12.7332170  48.5375290  30.5071890
  13.6853920  48.4533310  30.4572130  12.5860390  49.2017000  31.1805680
  15.6241370  47.9169500  16.0063800  15.3382880  47.5034640  15.1917980
  15.4260920  48.8457210  15.8864320   7.0888600  43.9102780  14.4469410
   6.9839240  43.2955130  15.1730790   6.9212820  43.3868670  13.6632420
   7.2402920  42.5959580  30.4258640   6.4748590  43.1644580  30.3413310
   7.4218880  42.3035790  29.5326870  10.3291330  42.9722810  15.0511400
   9.7801430  43.4192110  15.6954140  10.9510590  42.4672060  15.5749070
  14.3826270  44.3264910  30.9833660  15.1235740  44.6640670  30.4801120
  13.6198950  44.4956970  30.4303430   2.2188060  39.3318180  31.7873190
   2.2593400  39.0332050  32.6958420   3.0733560  39.7325790  31.6280710
   5.9966450  41.9313730  16.9476700   6.4182870  41.7653600  17.7908090
   6.1217290  41.1213960  16.4531840   4.1593870  37.9110280  29.7547680
   3.6290330  37.4201230  29.1271020   4.8281940  38.3394480  29.2205610
   8.5094090  40.9551340  14.1953800   9.0299750  40.2400360  13.8294950
   9.1562490  41.5937210  14.4954310  13.0571930  42.3779740  29.5188870
  13.4712950  42.5324820  30.3679290  12.1222930  42.5034960  29.6814650
  13.5294100  39.7175900  31.5228020  14.1114870  38.9628220  31.4348500
  13.7055870  40.2483340  30.7459500   4.6466170  34.8772650  29.8344970
   4.5523040  34.2593400  29.1095840   4.0663560  35.6038940  29.6074880
   7.4127610  33.4345890  26.8672360   6.9644910  33.4570150  26.0217910
   6.7792810  33.0364910  27.4642660   7.8187160  42.3300220  27.4884800
   8.2375270  43.1732950  27.3161040   6.8995790  42.4672260  27.2591580
  10.1551060  40.0616400  28.8722640  10.2747270  39.4657540  29.6117480
  11.0145060  40.0986090  28.4523940  12.4938960  40.6153590  27.4485150
  11.9674180  41.1396210  26.8450290  12.8370300  41.2480980  28.0794880
   4.8925350  38.0046960  13.8934860   4.6914410  37.1414320  14.2548200
   4.7217400  37.9180320  12.9556460   5.6694580  48.6353230  28.6042530
   5.1315670  49.3599290  28.2851230   5.9228540  48.1583570  27.8139870
   6.9219830  36.6037750  30.1298460   7.5119520  36.2953600  30.8176280
   6.1040070  36.1317500  30.2858360  11.7413260  36.2203560  30.3631480
  11.0528780  35.5585100  30.2981470  12.4619280  35.7741830  30.8079940
  12.3713660  32.8155190  16.4221740  12.6515950  31.9723090  16.7781160
  11.5979390  33.0478300  16.9360490   3.6908150  35.1047580  13.8812740
   3.9934050  35.1115010  12.9731890   4.4302740  34.7545440  14.3780400
   8.5256790  49.8704440  28.8629180   8.4515490  50.7739580  29.1701550
   7.6235630  49.5516340  28.8351250   6.9093080  34.0482200  14.8668940
   6.5615080  33.3706190  14.2871390   7.1105850  33.5871710  15.6812330
   9.0742120  49.0362950  16.4855540   9.9692910  49.3747920  16.5074300
   9.1059750  48.3142360  15.8579820   2.7138280  44.4090000  14.7142540
   3.1513150  44.9519670  15.3700120   3.1986010  43.5836950  14.7238880
   4.5246000  45.5288040  19.8264770   4.2241540  45.4053010  20.7268680
   4.4183490  44.6696630  19.4180500  16.0536470  47.5666620  29.1921740
  15.4538460  47.6259180  28.4485660  16.1830370  46.6271600  29.3218590
  17.2937920  45.3084440  14.5291450  16.4630880  45.3761090  14.9998680
  17.4709750  46.1988560  14.2258310  16.7494380  42.0531920  17.0325650
  17.5113290  42.6228570  17.1385340  16.7648750  41.4859120  17.8033960
  17.7554350  42.9082020  21.8767580  18.1263180  42.1249340  21.4703550
  18.3956280  43.5971120  21.6984880  14.7388110  44.2918600  27.2897900
  13.9247950  44.7215760  27.5523690  15.1462310  44.9037010  26.6766950
  16.8013550  42.3466290  14.1898170  17.0762390  43.2545170  14.0617390
  16.6124290  42.2828820  15.1260160  13.1989160  35.3711140  15.4851800
  13.6174040  35.1842120  14.6448460  12.8925220  34.5190190  15.7954730
  16.6978890  40.2835280  19.1827600  16.3222490  39.5163210  18.7508890
  15.9682010  40.6657980  19.6702530  16.0878510  39.4306800  28.8167120
  15.8564600  39.2019550  27.9165070  16.3483060  40.3506350  28.7712010
  14.5266580  34.6563230  31.5946820  15.4036760  34.6646630  31.9780820
  14.5387420  33.9194070  30.9839170  15.9729850  38.5092770  22.4834840
  16.4967330  38.0155420  21.8525010  16.5589270  38.6443130  23.2282410
  16.1519570  38.5932640  26.0054390  15.2022280  38.5596180  26.1199380
  16.3332580  39.5032750  25.7704160  15.4629820  37.7666120  18.4227250
  15.9588940  37.5336990  19.2076130  15.2645890  36.9277960  18.0064890
  16.8916980  36.4027070  20.9564930  16.7816260  36.2483110  21.8947200
  17.6524570  35.8748010  20.7140340  15.2382700  32.3421200  27.4147930
  15.8754920  32.9555340  27.7807120  15.3857590  32.3781860  26.4697160
  17.7807250  34.2334990  14.1971070  18.7056560  34.1016170  13.9889360
  17.7583040  34.3127810  15.1507520  17.8545740  35.0045650  16.8227780
  17.0597240  34.9390770  17.3520690  18.0589020  35.9396290  16.8113130
  14.7964160  49.0437200  20.8166170  15.3923230  48.7221770  20.1400590
  15.0542310  48.5709020  21.6079440   2.7026730  45.4755110  30.9656800
   2.6596360  45.1048020  31.8471260   2.8337740  46.4132680  31.1058620
   6.4032760  47.0314700  26.5666520   6.1624120  47.2989260  25.6797040
   7.3435400  47.2020430  26.6217380   8.6087180  33.4947390  30.3223030
   8.5476070  34.0869220  31.0718440   9.5487560  33.3873350  30.1773290
  11.2461740  33.1517450  29.9615320  11.8602150  33.4696740  29.2996400
  11.7911300  32.6666040  30.5811180  17.6636920  49.0509080  27.3677160
  17.1695200  49.4477950  26.6504290  17.0550210  48.4258290  27.7614440
   1.7683000  31.8311710  30.0754380   2.3165990  31.6499760  29.3120490
   1.8338310  31.0405820  30.6110690   2.5414760  48.4217360  28.0854580
   1.9475080  48.2902060  28.8244620   2.5338600  47.5855500  27.6196680
  11.9869780  31.7149590  26.2884610  11.1129620  32.0484700  26.0857540
  11.8780530  31.2422770  27.1136480  12.8941760  33.9220460  27.6726330
  12.5655120  33.1072220  27.2928060  13.8424060  33.8790270  27.5492020
  15.3476370  49.6932500  24.6463900  14.8879340  50.4448310  24.2721920
  14.7188830  48.9738970  24.5878700   5.7772090  48.0020740  23.8212030
   6.2937110  47.3908100  23.2960290   6.4269470  48.5049520  24.3123040
   8.5167590  48.8929230  24.6481010   8.8045400  48.6383530  23.7714020
   9.0290810  48.3406590  25.2386580   9.7344600  32.6319430  25.2277520
   8.9516390  33.1064930  25.5074280   9.4407530  31.7274260  25.1190700
  14.2865670  33.3342530  23.2726610  14.7273760  33.2787630  22.4248210
  14.0173260  34.2500540  23.3436790  16.1504240  32.9657770  21.2835430
  16.0892640  32.0218990  21.1366450  16.9296270  33.0737860  21.8288890
   7.6198820  35.0506180  20.7393550   6.8073330  34.6763070  20.3989430
   8.1240460  34.2951260  21.0414740  12.1223800  31.7148630  21.9776620
  12.7253170  32.2868840  22.4525140  11.3816790  32.2788070  21.7550520
  15.2658400  32.1170190  17.2516900  15.4609030  33.0153640  17.5184330
  14.4788270  31.8857270  17.7449850   3.4510160  33.4630960  16.2893210
   3.9802920  32.6760760  16.1601160   4.0838480  34.1422150  16.5228740
   5.6448000  33.2006100  19.3438600   5.0150740  32.4993410  19.5108730
   5.1053140  33.9610230  19.1271760   8.5839950  49.8145330  32.0149210
   9.5107260  49.5789600  32.0585170   8.5690380  50.6417330  31.5335240
  16.8185010  49.3570900  19.0123460  16.9937200  48.6708640  18.3684380
  16.1206580  49.8817950  18.6200130   5.7703560  32.4790080  31.7791090
   5.4887830  32.9823680  31.0151910   6.1523260  31.6811830  31.4133220
   4.6612660  49.7465740  16.5658770   5.3931480  49.4625020  16.0182660
   4.9206330  49.5079020  17.4558150   3.8227450  45.8630470  16.5705100
   3.1936330  46.3315570  17.1190930   3.9375280  45.0179690  17.0051290
  12.3719020  31.8943660  32.3571560  12.2584470  32.2138270  33.2523080
  13.1888760  32.2956170  32.0608840  15.1517510  49.0415190  31.8390250
  15.9442830  48.5464420  31.6316210  15.4450660  49.7205330  32.4465860
  11.2777170  39.9136130   2.7206300  11.1971220  38.9990740   2.4498010
  10.8641590  40.4103200   2.0146010   9.4095210  41.6915150   4.6015570
   8.6337310  41.2115590   4.8914140  10.0608140  41.0120800   4.4271730
   3.4261040  42.0034960   5.4791330   2.5945920  41.7483670   5.8787840
   4.0342020  42.0745730   6.2149250  13.4302640  46.0975340   3.3814700
  12.9684170  45.3262580   3.7101870  14.2428190  46.1241410   3.8867150
   3.4062300  46.0375050   5.6749350   3.7090340  45.1472790   5.4959570
   4.1505890  46.5945270   5.4471600   9.6565950  48.3833350   3.0018690
   9.0377390  48.8390850   2.4313130  10.5117730  48.5384810   2.6008390
   8.8504200  44.3672340   4.6085730   8.7812480  43.4262280   4.4474860
   9.6124060  44.4573750   5.1808300   9.8809370  37.1742720   4.8354660
  10.2574190  36.3014600   4.7228330   9.7828880  37.5101420   3.9445100
  13.6633490  34.6693160   1.7683000  14.4843110  34.1789730   1.8108480
  13.6967570  35.2590820   2.5214840   5.8522110  38.5154720   4.6297280
   6.3600330  39.0135690   5.2702300   6.3835350  37.7389920   4.4536640
  17.9533040  36.6859910   8.3326630  17.2485210  37.0741620   7.8141740
  18.2190960  37.3810200   8.9347560   4.1358210  33.1553280   8.8960700
   4.1376650  33.6725670   8.0906600   3.3062520  32.6783460   8.8730630
   5.3861060  42.7948460   7.0734200   5.0530440  43.4217380   7.7155270
   5.5627740  43.3210340   6.2935870  13.8994970  36.6093540   4.5410540
  13.1950540  36.8978430   5.1213650  14.2607130  37.4193650   4.1810100
   3.8173540  34.8663240   6.9031150   4.1590350  35.7105290   6.6085020
   2.8789350  35.0146980   7.0196490   4.5980160  44.7629260   8.8883380
   5.2154160  45.4380340   8.6067830   3.7373280  45.1717240   8.7970880
  15.5157750  46.2268670   6.8038020  14.8321270  46.8967780   6.7954690
  16.0552040  46.4249320   6.0382880  16.9681890  36.0548330   4.9319750
  16.0206800  36.0887310   5.0635180  17.2931880  36.8687280   5.3169110
   7.5001430  32.3545510   3.2275740   7.8076410  31.7992400   2.5111240
   6.5702130  32.4889970   3.0448730  13.0516490  48.0712800   5.5183200
  13.0643650  47.6675090   4.6505460  12.4991710  48.8460090   5.4144630
  12.4501930  42.9742640   6.8465810  12.8670720  42.7602750   6.0119270
  13.1741750  43.2315430   7.4174430  16.3964030  41.3729860   6.9382050
  15.5682660  41.4422950   6.4632180  16.9914510  41.9584170   6.4697880
  13.3606040  38.1599180   7.8836920  12.9477220  38.9852890   8.1376910
  12.6281990  37.5744220   7.6913280   5.4938830  40.9459080   2.7455590
   5.0895830  40.2336330   2.2501490   5.5801950  40.6012320   3.6343630
   5.9620530  44.6326640   4.9094800   5.6648820  44.0272110   4.2302580
   6.9120350  44.6703950   4.7984160   4.2067450  37.7202290   6.5254630
   4.7582040  37.8297630   5.7507880   4.7210960  38.0939890   7.2409860
  14.0506140  48.2058510   8.5717900  13.5736700  49.0130700   8.3790510
  13.3667930  47.5536840   8.7244110   5.0538960  44.3708330  11.5602600
   4.1567490  44.5948300  11.8076000   5.0791830  44.4943270  10.6114000
   3.8810180  41.2421650  10.1359970   3.7417950  42.1144450  10.5047370
   2.9991540  40.8994460   9.9907910   5.6790530  47.1843350  12.3445120
   5.6505960  47.5886300  11.4773550   5.5155500  46.2553710  12.1816720
  17.6305350  47.9670450  13.6409290  18.1065070  48.4453340  14.3198370
  18.2512510  47.8987940  12.9154790  17.0338600  45.1583300  10.8009300
  17.1601660  44.9195180   9.8826480  17.0759980  44.3267840  11.2731380
  10.8955340  48.8611300   9.3704110  11.4100010  48.7719310  10.1726540
  10.0524420  49.2071000   9.6632020  16.8862610  37.2115760  11.7659040
  16.2706880  37.7195430  11.2374500  16.5659030  36.3114090  11.7084980
   4.6607120  33.1839130   3.6285910   4.2175270  33.9648670   3.2970430
   5.2192110  33.5069020   4.3356850   8.9476930  36.0507650   9.2321230
   8.4856300  36.2590670  10.0441170   8.5455040  35.2367000   8.9291900
  13.9481440  37.2716600  10.3617890  13.0975030  36.9722350  10.6826960
  13.7883230  37.5158610   9.4501710  11.0431150  38.7718350  12.4616680
  11.3684560  37.9382100  12.1218910  11.8311480  39.2946870  12.6095010
   6.6983020  33.7286460   5.4875510   6.9955350  34.6349290   5.4067530
   7.2468580  33.2405240   4.8735080   6.8920550  39.2058280  12.0227430
   6.7964150  38.2653010  11.8727830   7.7352530  39.4273350  11.6275500
   8.5976140  35.7006920  13.2457950   7.9074460  35.5079120  13.8804040
   9.3408440  35.9841560  13.7782250  10.8739110  39.5405360   6.0811870
  10.1420230  40.0492170   6.4301970  10.4763450  38.7235340   5.7800650
   7.3116500  36.2159560   4.4864360   7.3152560  35.7749510   3.6368900
   8.2067620  36.5376890   4.5936180   3.1618880  36.0986050   3.4458570
   2.8218930  36.5761280   4.2025620   2.3996200  35.6451170   3.0859670
  11.3365020  34.9939040   5.4934810  11.3537760  35.4447690   6.3376660
  11.0880600  34.0944680   5.7068250  14.7635770  32.4071220  11.3321190
  15.0881540  31.6760880  11.8579170  14.7992280  32.0884860  10.4302180
   7.6124470  40.2761340   6.2329770   7.9794600  39.8019910   6.9791110
   7.4229530  41.1502910   6.5738110   5.4023840  39.3169980   8.5513980
   5.0980910  40.1961960   8.7764340   6.3570300  39.3769770   8.5871420
  14.6893610  42.5196330   4.9407220  15.4092730  43.0151620   4.5503330
  14.4875430  41.8414220   4.2961090  10.0712410  42.5905390  10.8276220
  10.0049720  41.6701060  10.5733810   9.4417550  42.6880830  11.5420860
   3.9743030  43.1911350   2.7859640   4.4921700  42.3879610   2.7316530
   3.5227050  43.1290490   3.6276470   4.6600690  40.6156960  12.5824890
   4.3600830  40.7614140  11.6852710   5.4311930  40.0562250  12.4898280
  10.0029140  45.4125960  10.5780020  10.0173680  44.4806920  10.3598930
   9.2954240  45.4985720  11.2169790  16.2140350  42.0533300   9.9248600
  15.4888540  42.6462080   9.7277990  16.7415810  42.0456840   9.1261970
  11.7439940  43.7793470   3.4232450  12.0963760  43.1821600   2.7633820
  10.8602270  43.4537700   3.5940700   9.4363040  47.0543530   7.6720520
  10.0805260  47.2602910   8.3493940   9.7992480  46.2931930   7.2191370
  10.7095120  45.0575880   6.3897970  11.3517350  44.3569040   6.5030140
  11.2344470  45.8374320   6.2094860  12.4832740  45.8570780   9.5934030
  12.8188980  46.4437470  10.2711950  11.5633080  45.7263490   9.8231820
   8.3121320  45.9062110  12.7622090   7.9918190  45.1871350  13.3067780
   7.6379680  46.5817180  12.8358150  11.5274920  36.1388270   8.1258890
  11.8955740  35.3183480   8.4538460  10.6673120  36.1990160   8.5414540
   8.4876910  38.7927860   8.3496860   8.9862160  39.2673680   9.0148710
   8.6299860  37.8691380   8.5566890  15.6943770  35.0095820   9.1925250
  15.1917370  35.7501220   9.5319060  16.5100430  35.3979820   8.8762040
  13.9865780  40.2529000   2.6386610  13.0455920  40.2679230   2.8134300
  14.3009850  39.4664960   3.0846910  15.9891360  47.4237850   4.3140870
  16.1138780  48.2469020   4.7864680  16.8556920  47.2128580   3.9665020
   3.4608890  49.5169060   3.9858000   4.1971370  48.9684520   4.2566570
   3.8449810  50.3825070   3.8463990   2.4667170  48.7015130  13.1743580
   3.2679900  49.0227180  13.5878980   1.9518990  48.3410710  13.8963490
  11.3031800  44.8095000  13.1218990  10.6969960  44.8326600  12.3814740
  10.9985910  44.0778040  13.6586240  12.7332170  48.5375290  11.7328400
  13.6853920  48.4533310  11.6828640  12.5860390  49.2017000  12.4062190
   7.2402920  42.5959580  11.6515150   6.4748590  43.1644580  11.5669820
   7.4218880  42.3035790  10.7583380  14.3826270  44.3264910  12.2090170
  15.1235740  44.6640670  11.7057630  13.6198950  44.4956970  11.6559940
   2.2188060  39.3318180  13.0129700   2.2593400  39.0332050  13.9214930
   3.0733560  39.7325790  12.8537220   4.1593870  37.9110280  10.9804190
   3.6290330  37.4201230  10.3527530   4.8281940  38.3394480  10.4462120
  13.0571930  42.3779740  10.7445380  13.4712950  42.5324820  11.5935800
  12.1222930  42.5034960  10.9071160  13.5294100  39.7175900  12.7484530
  14.1114870  38.9628220  12.6605010  13.7055870  40.2483340  11.9716010
   4.6466170  34.8772650  11.0601480   4.5523040  34.2593400  10.3352350
   4.0663560  35.6038940  10.8331390   7.4127610  33.4345890   8.0928870
   6.9644910  33.4570150   7.2474420   6.7792810  33.0364910   8.6899170
   7.8187160  42.3300220   8.7141310   8.2375270  43.1732950   8.5417550
   6.8995790  42.4672260   8.4848090  10.1551060  40.0616400  10.0979150
  10.2747270  39.4657540  10.8373990  11.0145060  40.0986090   9.6780450
  12.4938960  40.6153590   8.6741660  11.9674180  41.1396210   8.0706800
  12.8370300  41.2480980   9.3051390   5.6694580  48.6353230   9.8299040
   5.1315670  49.3599290   9.5107740   5.9228540  48.1583570   9.0396380
   6.9219830  36.6037750  11.3554970   7.5119520  36.2953600  12.0432790
   6.1040070  36.1317500  11.5114870  11.7413260  36.2203560  11.5887990
  11.0528780  35.5585100  11.5237980  12.4619280  35.7741830  12.0336450
   8.5256790  49.8704440  10.0885690   8.4515490  50.7739580  10.3958060
   7.6235630  49.5516340  10.0607760  16.0536470  47.5666620  10.4178250
  15.4538460  47.6259180   9.6742170  16.1830370  46.6271600  10.5475100
  17.7554350  42.9082020   3.1024090  18.1263180  42.1249340   2.6960060
  18.3956280  43.5971120   2.9241390  14.7388110  44.2918600   8.5154410
  13.9247950  44.7215760   8.7780200  15.1462310  44.9037010   7.9023460
  16.0878510  39.4306800  10.0423630  15.8564600  39.2019550   9.1421580
  16.3483060  40.3506350   9.9968520  14.5266580  34.6563230  12.8203330
  15.4036760  34.6646630  13.2037330  14.5387420  33.9194070  12.2095680
  15.9729850  38.5092770   3.7091350  16.4967330  38.0155420   3.0781520
  16.5589270  38.6443130   4.4538920  16.1519570  38.5932640   7.2310900
  15.2022280  38.5596180   7.3455890  16.3332580  39.5032750   6.9960670
  16.8916980  36.4027070   2.1821440  16.7816260  36.2483110   3.1203710
  17.6524570  35.8748010   1.9396850  15.2382700  32.3421200   8.6404440
  15.8754920  32.9555340   9.0063630  15.3857590  32.3781860   7.6953670
   2.7026730  45.4755110  12.1913310   2.6596360  45.1048020  13.0727770
   2.8337740  46.4132680  12.3315130   6.4032760  47.0314700   7.7923030
   6.1624120  47.2989260   6.9053550   7.3435400  47.2020430   7.8473890
   8.6087180  33.4947390  11.5479540   8.5476070  34.0869220  12.2974950
   9.5487560  33.3873350  11.4029800  11.2461740  33.1517450  11.1871830
  11.8602150  33.4696740  10.5252910  11.7911300  32.6666040  11.8067690
  17.6636920  49.0509080   8.5933670  17.1695200  49.4477950   7.8760800
  17.0550210  48.4258290   8.9870950   1.7683000  31.8311710  11.3010890
   2.3165990  31.6499760  10.5377000   1.8338310  31.0405820  11.8367200
   2.5414760  48.4217360   9.3111090   1.9475080  48.2902060  10.0501130
   2.5338600  47.5855500   8.8453190  11.9869780  31.7149590   7.5141120
  11.1129620  32.0484700   7.3114050  11.8780530  31.2422770   8.3392990
  12.8941760  33.9220460   8.8982840  12.5655120  33.1072220   8.5184570
  13.8424060  33.8790270   8.7748530  15.3476370  49.6932500   5.8720410
  14.8879340  50.4448310   5.4978430  14.7188830  48.9738970   5.8135210
   5.7772090  48.0020740   5.0468540   6.2937110  47.3908100   4.5216800
   6.4269470  48.5049520   5.5379550   8.5167590  48.8929230   5.8737520
   8.8045400  48.6383530   4.9970530   9.0290810  48.3406590   6.4643090
   9.7344600  32.6319430   6.4534030   8.9516390  33.1064930   6.7330790
   9.4407530  31.7274260   6.3447210  14.2865670  33.3342530   4.4983120
  14.7273760  33.2787630   3.6504720  14.0173260  34.2500540   4.5693300
  16.1504240  32.9657770   2.5091940  16.0892640  32.0218990   2.3622960
  16.9296270  33.0737860   3.0545400  12.1223800  31.7148630   3.2033130
  12.7253170  32.2868840   3.6781650  11.3816790  32.2788070   2.9807030
   8.5839950  49.8145330  13.2405720   9.5107260  49.5789600  13.2841680
   8.5690380  50.6417330  12.7591750   5.7703560  32.4790080  13.0047600
   5.4887830  32.9823680  12.2408420   6.1523260  31.6811830  12.6389730
  12.3719020  31.8943660  13.5828070  12.2584470  32.2138270  14.4779590
  13.1888760  32.2956170  13.2865350  15.1517510  49.0415190  13.0646760
  15.9442830  48.5464420  12.8572720  15.4450660  49.7205330  13.6722370
  11.2777170  21.1392640  59.0436770  11.1971220  20.2247250  58.7728480
  10.8641590  21.6359710  58.3376480   9.4095210  22.9171660  60.9246040
   8.6337310  22.4372100  61.2144610  10.0608140  22.2377310  60.7502200
   3.4261040  23.2291470  61.8021800   2.5945920  22.9740180  62.2018310
   4.0342020  23.3002240  62.5379720  13.4302640  27.3231850  59.7045170
  12.9684170  26.5519090  60.0332340  14.2428190  27.3497920  60.2097620
   3.4062300  27.2631560  61.9979820   3.7090340  26.3729300  61.8190040
   4.1505890  27.8201780  61.7702070   9.6565950  29.6089860  59.3249160
   9.0377390  30.0647360  58.7543600  10.5117730  29.7641320  58.9238860
   8.8504200  25.5928850  60.9316200   8.7812480  24.6518790  60.7705330
   9.6124060  25.6830260  61.5038770   9.8809370  18.3999230  61.1585130
  10.2574190  17.5271110  61.0458800   9.7828880  18.7357930  60.2675570
   4.0114380  16.7724860  56.6202570   4.1181130  17.6728590  56.9271330
   3.1006740  16.7242830  56.3297220  13.6633490  15.8949670  58.0913470
  14.4843110  15.4046240  58.1338950  13.6967570  16.4847330  58.8445310
   5.8522110  19.7411230  60.9527750   6.3600330  20.2392200  61.5932770
   6.3835350  18.9646430  60.7767110  10.5229300  24.4929100  56.7181070
   9.9046570  24.9578550  56.1543790  11.0352550  25.1856580  57.1350580
  13.8994970  17.8350050  60.8641010  13.1950540  18.1234940  61.4444120
  14.2607130  18.6450160  60.5040570  15.5157750  27.4525180  63.1268490
  14.8321270  28.1224290  63.1185160  16.0552040  27.6505830  62.3613350
  16.9681890  17.2804840  61.2550220  16.0206800  17.3143820  61.3865650
  17.2931880  18.0943790  61.6399580   7.5001430  13.5802020  59.5506210
   7.8076410  13.0248910  58.8341710   6.5702130  13.7146480  59.3679200
  13.0516490  29.2969310  61.8413670  13.0643650  28.8931600  60.9735930
  12.4991710  30.0716600  61.7375100  14.3461910  26.0185530  56.9303840
  14.2358240  25.0759860  57.0553260  14.3430160  26.3801170  57.8166600
   9.8882190  21.6450850  56.2866330   8.9611470  21.5788230  56.5154800
  10.0407010  22.5830980  56.1721570   9.8751270  17.9167850  53.2833490
   8.9354940  18.0781810  53.3685950  10.1934530  18.6353530  52.7369480
  16.3964030  22.5986370  63.2612520  15.5682660  22.6679460  62.7862650
  16.9914510  23.1840680  62.7928350  13.9179480  23.2071150  56.7901580
  13.2991900  22.8690700  56.1427880  13.9003930  22.5630910  57.4980770
   5.4938830  22.1715590  59.0686060   5.0895830  21.4592840  58.5731960
   5.5801950  21.8268830  59.9574100   5.9620530  25.8583150  61.2325270
   5.6648820  25.2528620  60.5533050   6.9120350  25.8960460  61.1214630
  12.0944180  22.4457960  53.7974330  12.5337460  21.6080390  53.6512150
  12.8072600  23.0787360  53.8838470  10.2039560  27.3854030  57.7655570
  10.6435470  28.1278360  57.3510960  10.1426450  27.6280600  58.6894530
  15.6761320  13.7000770  52.1115370  15.3633980  13.7927600  53.0114440
  16.4373790  14.2781800  52.0612800   2.1943460  21.0660570  56.5692710
   2.0741060  21.7922660  55.9573980   1.8844350  20.2963480  56.0920620
  12.8709740  30.3723150  55.1218580  12.7110880  30.0826090  56.0200410
  12.7056450  29.5963280  54.5863810   5.3498120  30.1521680  56.8990200
   5.1740600  29.2357220  56.6858000   4.4953860  30.5108970  57.1388000
  12.5735870  27.8810710  53.6816580  11.8801030  27.8788000  53.0218860
  13.3158730  27.4570030  53.2510750  12.1385800  29.5073420  57.7565070
  12.5942750  28.7262800  58.0703690  12.4778320  30.2180240  58.3006250
   4.6607120  14.4095640  59.9516380   4.2175270  15.1905180  59.6200900
   5.2192110  14.7325530  60.6587320   7.7765940  14.0306340  54.8322210
   7.1520120  14.0266210  55.5575520   7.6896060  13.1637300  54.4358180
   6.6983020  14.9542970  61.8105980   6.9955350  15.8605800  61.7298000
   7.2468580  14.4661750  61.1965550   4.4521340  19.5329210  57.6797630
   4.2262260  19.3166380  58.5844250   3.6713870  19.9657670  57.3343600
  11.6819100  19.5392580  56.2788280  11.0827990  20.2628380  56.0951900
  12.2298710  19.4769360  55.4964730  10.2883970  18.1756120  58.3091560
  10.6813540  18.4928320  57.4960250  10.6500820  17.2968000  58.4236080
  10.8739110  20.7661870  62.4042340  10.1420230  21.2748680  62.7532440
  10.4763450  19.9491850  62.1031120   7.3116500  17.4416070  60.8094830
   7.3152560  17.0006020  59.9599370   8.2067620  17.7633400  60.9166650
   3.1618880  17.3242560  59.7689040   2.8218930  17.8017790  60.5256090
   2.3996200  16.8707680  59.4090140   7.3736650  18.4428150  53.8001590
   7.4949470  18.4014630  54.7487410   6.9885160  19.3052300  53.6448320
  11.3365020  16.2195550  61.8165280  11.3537760  16.6704200  62.6607130
  11.0880600  15.3201190  62.0298720   6.3858150  20.7529290  53.1984890
   5.8175050  20.3047540  52.5720800   7.0947150  21.1122070  52.6650040
   3.9305630  24.7487480  55.4711300   3.1567890  24.2085100  55.3110020
   4.6600260  24.2294090  55.1329060  14.6893610  23.7452840  61.2637690
  15.4092730  24.2408130  60.8733800  14.4875430  23.0670730  60.6191560
  10.1503550  15.1390800  55.4067080   9.3368160  14.6403970  55.3312390
   9.9565500  15.9789050  54.9903430  12.8651940  19.5110450  53.7029240
  13.7531560  19.8227680  53.5280580  12.8357030  18.6382700  53.3109820
   3.9743030  24.4167860  59.1090110   4.4921700  23.6136120  59.0547000
   3.5227050  24.3547000  59.9506940   8.8612530  25.6834140  54.3817410
   9.2028230  26.4276370  53.8860730   8.0325240  25.9965260  54.7442240
  15.1366210  20.8222290  53.1709100  15.0529930  21.2536510  52.3205540
  15.8560400  21.2820640  53.6035920  16.1653460  27.6764550  55.8991230
  15.5229620  27.0220170  56.1734950  15.7784120  28.0819640  55.1231900
  11.7439940  25.0049980  59.7462920  12.0963760  24.4078110  59.0864290
  10.8602270  24.6794210  59.9171170   7.8303220  25.7647670  57.1533330
   8.5174350  26.3116880  57.5340920   7.0435640  26.3088400  57.1882940
   7.1330430  22.7693700  56.7658690   7.5893210  23.5798950  56.9918880
   6.7818640  22.4516840  57.5977180   3.0342210  13.1131350  57.2381210
   2.9056840  13.1049250  58.1866130   2.2104230  13.4514440  56.8872220
  10.7095120  26.2832390  62.7128440  11.3517350  25.5825550  62.8260610
  11.2344470  27.0630830  62.5325330  14.5550840  26.5681010  52.4367580
  14.3288420  25.8511450  53.0292220  14.1647040  26.3193450  51.5989330
  14.1367090  24.4852950  54.0981740  13.8488790  24.9465640  54.8859620
  14.9319260  24.0250720  54.3665960   6.3535490  27.9779070  54.0285710
   6.3445590  28.7108760  53.4130220   5.4333850  27.7310650  54.1212670
  14.8936950  16.3201720  55.2576920  14.2650110  16.4247390  54.5435150
  14.3988870  16.5398500  56.0470800   9.3395090  28.0407310  52.6910900
   9.4407070  27.8371300  51.7612880   8.4396830  27.7865590  52.8958680
   6.8620980  18.5987670  56.6734800   6.1537130  19.0674010  57.1148410
   7.1465460  17.9409680  57.3079990  10.8936410  15.3238330  58.1130590
  10.7704190  15.3424460  57.1640100  11.8420970  15.3717270  58.2328990
   7.9813200  30.5593630  57.3858570   8.2354700  30.5215020  56.4637940
   7.0325680  30.4326960  57.3786820   5.0656000  16.9072750  54.0485510
   5.9146530  17.3442900  53.9825700   4.6987270  17.2193010  54.8757570
  13.9865780  21.4785510  58.9617080  13.0455920  21.4935740  59.1364770
  14.3009850  20.6921470  59.4077380   3.9647420  23.1605110  52.5221040
   4.7310690  23.0486470  53.0846470   4.0422110  22.4643080  51.8697810
   2.6594180  20.5930180  53.2053930   2.7397770  19.6457690  53.3171330
   3.5513930  20.9237060  53.3114590  15.9891360  28.6494360  60.6371340
  16.1138780  29.4725530  61.1095150  16.8556920  28.4385090  60.2895490
   3.4608890  30.7425570  60.3088470   4.1971370  30.1941030  60.5797040
   3.8449810  31.6081580  60.1694460   6.5711200  29.9155880  52.1314040
   7.3639810  30.2044710  51.6795830   6.0515550  29.4848050  51.4526520
  15.6241370  29.1426010  53.5550780  15.3382880  28.7291150  52.7404960
  15.4260920  30.0713720  53.4351300   7.0888600  25.1359290  51.9956390
   6.9839240  24.5211640  52.7217770   6.9212820  24.6125180  51.2119400
  10.3291330  24.1979320  52.5998380   9.7801430  24.6448620  53.2441120
  10.9510590  23.6928570  53.1236050   5.9966450  23.1570240  54.4963680
   6.4182870  22.9910110  55.3395070   6.1217290  22.3470470  54.0018820
   8.5094090  22.1807850  51.7440780   9.0299750  21.4656870  51.3781930
   9.1562490  22.8193720  52.0441290   4.8925350  19.2303470  51.4421840
   4.6914410  18.3670830  51.8035180   4.7217400  19.1436830  50.5043440
  12.3713660  14.0411700  53.9708720  12.6515950  13.1979600  54.3268140
  11.5979390  14.2734810  54.4847470   3.6908150  16.3304090  51.4299720
   3.9934050  16.3371520  50.5218870   4.4302740  15.9801950  51.9267380
   6.9093080  15.2738710  52.4155920   6.5615080  14.5962700  51.8358370
   7.1105850  14.8128220  53.2299310   9.0742120  30.2619460  54.0342520
   9.9692910  30.6004430  54.0561280   9.1059750  29.5398870  53.4066800
   2.7138280  25.6346510  52.2629520   3.1513150  26.1776180  52.9187100
   3.1986010  24.8093460  52.2725860   4.5246000  26.7544550  57.3751750
   4.2241540  26.6309520  58.2755660   4.4183490  25.8953140  56.9667480
  17.2937920  26.5340950  52.0778430  16.4630880  26.6017600  52.5485660
  17.4709750  27.4245070  51.7745290  16.7494380  23.2788430  54.5812630
  17.5113290  23.8485080  54.6872320  16.7648750  22.7115630  55.3520940
  17.7554350  24.1338530  59.4254560  18.1263180  23.3505850  59.0190530
  18.3956280  24.8227630  59.2471860  16.8013550  23.5722800  51.7385150
  17.0762390  24.4801680  51.6104370  16.6124290  23.5085330  52.6747140
  13.1989160  16.5967650  53.0338780  13.6174040  16.4098630  52.1935440
  12.8925220  15.7446700  53.3441710  16.6978890  21.5091790  56.7314580
  16.3222490  20.7419720  56.2995870  15.9682010  21.8914490  57.2189510
  15.9729850  19.7349280  60.0321820  16.4967330  19.2411930  59.4011990
  16.5589270  19.8699640  60.7769390  15.4629820  18.9922630  55.9714230
  15.9588940  18.7593500  56.7563110  15.2645890  18.1534470  55.5551870
  16.8916980  17.6283580  58.5051910  16.7816260  17.4739620  59.4434180
  17.6524570  17.1004520  58.2627320  17.7807250  15.4591500  51.7458050
  18.7056560  15.3272680  51.5376340  17.7583040  15.5384320  52.6994500
  17.8545740  16.2302160  54.3714760  17.0597240  16.1647280  54.9007670
  18.0589020  17.1652800  54.3600110  14.7964160  30.2693710  58.3653150
  15.3923230  29.9478280  57.6887570  15.0542310  29.7965530  59.1566420
  15.3476370  30.9189010  62.1950880  14.8879340  31.6704820  61.8208900
  14.7188830  30.1995480  62.1365680   5.7772090  29.2277250  61.3699010
   6.2937110  28.6164610  60.8447270   6.4269470  29.7306030  61.8610020
   8.5167590  30.1185740  62.1967990   8.8045400  29.8640040  61.3201000
   9.0290810  29.5663100  62.7873560   9.7344600  13.8575940  62.7764500
   8.9516390  14.3321440  63.0561260   9.4407530  12.9530770  62.6677680
  14.2865670  14.5599040  60.8213590  14.7273760  14.5044140  59.9735190
  14.0173260  15.4757050  60.8923770  16.1504240  14.1914280  58.8322410
  16.0892640  13.2475500  58.6853430  16.9296270  14.2994370  59.3775870
   7.6198820  16.2762690  58.2880530   6.8073330  15.9019580  57.9476410
   8.1240460  15.5207770  58.5901720  12.1223800  12.9405140  59.5263600
  12.7253170  13.5125350  60.0012120  11.3816790  13.5044580  59.3037500
  15.2658400  13.3426700  54.8003880  15.4609030  14.2410150  55.0671310
  14.4788270  13.1113780  55.2936830   3.4510160  14.6887470  53.8380190
   3.9802920  13.9017270  53.7088140   4.0838480  15.3678660  54.0715720
   5.6448000  14.4262610  56.8925580   5.0150740  13.7249920  57.0595710
   5.1053140  15.1866740  56.6758740  16.8185010  30.5827410  56.5610440
  16.9937200  29.8965150  55.9171360  16.1206580  31.1074460  56.1687110
   4.6612660  30.9722250  54.1145750   5.3931480  30.6881530  53.5669640
   4.9206330  30.7335530  55.0045130   3.8227450  27.0886980  54.1192080
   3.1936330  27.5572080  54.6677910   3.9375280  26.2436200  54.5538270
  11.2777170  21.1392640  40.2693280  11.1971220  20.2247250  39.9984990
  10.8641590  21.6359710  39.5632990   9.4095210  22.9171660  42.1502550
   8.6337310  22.4372100  42.4401120  10.0608140  22.2377310  41.9758710
   3.4261040  23.2291470  43.0278310   2.5945920  22.9740180  43.4274820
   4.0342020  23.3002240  43.7636230   3.4062300  27.2631560  43.2236330
   3.7090340  26.3729300  43.0446550   4.1505890  27.8201780  42.9958580
   9.6565950  29.6089860  40.5505670   9.0377390  30.0647360  39.9800110
  10.5117730  29.7641320  40.1495370   8.8504200  25.5928850  42.1572710
   8.7812480  24.6518790  41.9961840   9.6124060  25.6830260  42.7295280
   9.8809370  18.3999230  42.3841640  10.2574190  17.5271110  42.2715310
   9.7828880  18.7357930  41.4932080   4.0114380  16.7724860  37.8459080
   4.1181130  17.6728590  38.1527840   3.1006740  16.7242830  37.5553730
  13.6633490  15.8949670  39.3169980  14.4843110  15.4046240  39.3595460
  13.6967570  16.4847330  40.0701820   5.8522110  19.7411230  42.1784260
   6.3600330  20.2392200  42.8189280   6.3835350  18.9646430  42.0023620
  17.9533040  17.9116420  45.8813610  17.2485210  18.2998130  45.3628720
  18.2190960  18.6066710  46.4834540   4.1358210  14.3809790  46.4447680
   4.1376650  14.8982180  45.6393580   3.3062520  13.9039970  46.4217610
  10.5229300  24.4929100  37.9437580   9.9046570  24.9578550  37.3800300
  11.0352550  25.1856580  38.3607090   5.3861060  24.0204970  44.6221180
   5.0530440  24.6473890  45.2642250   5.5627740  24.5466850  43.8422850
  13.8994970  17.8350050  42.0897520  13.1950540  18.1234940  42.6700630
  14.2607130  18.6450160  41.7297080   3.8173540  16.0919750  44.4518130
   4.1590350  16.9361800  44.1572000   2.8789350  16.2403490  44.5683470
   4.5980160  25.9885770  46.4370360   5.2154160  26.6636850  46.1554810
   3.7373280  26.3973750  46.3457860  15.5157750  27.4525180  44.3525000
  14.8321270  28.1224290  44.3441670  16.0552040  27.6505830  43.5869860
  16.9681890  17.2804840  42.4806730  16.0206800  17.3143820  42.6122160
  17.2931880  18.0943790  42.8656090   7.5001430  13.5802020  40.7762720
   7.8076410  13.0248910  40.0598220   6.5702130  13.7146480  40.5935710
  13.0516490  29.2969310  43.0670180  13.0643650  28.8931600  42.1992440
  12.4991710  30.0716600  42.9631610  14.3461910  26.0185530  38.1560350
  14.2358240  25.0759860  38.2809770  14.3430160  26.3801170  39.0423110
  12.4501930  24.1999150  44.3952790  12.8670720  23.9859260  43.5606250
  13.1741750  24.4571940  44.9661410   9.8882190  21.6450850  37.5122840
   8.9611470  21.5788230  37.7411310  10.0407010  22.5830980  37.3978080
   9.8751270  17.9167850  34.5090000   8.9354940  18.0781810  34.5942460
  10.1934530  18.6353530  33.9625990  16.3964030  22.5986370  44.4869030
  15.5682660  22.6679460  44.0119160  16.9914510  23.1840680  44.0184860
  13.9179480  23.2071150  38.0158090  13.2991900  22.8690700  37.3684390
  13.9003930  22.5630910  38.7237280  13.3606040  19.3855690  45.4323900
  12.9477220  20.2109400  45.6863890  12.6281990  18.8000730  45.2400260
   5.4938830  22.1715590  40.2942570   5.0895830  21.4592840  39.7988470
   5.5801950  21.8268830  41.1830610   5.9620530  25.8583150  42.4581780
   5.6648820  25.2528620  41.7789560   6.9120350  25.8960460  42.3471140
   4.2067450  18.9458800  44.0741610   4.7582040  19.0554140  43.2994860
   4.7210960  19.3196400  44.7896840  14.0506140  29.4315020  46.1204880
  13.5736700  30.2387210  45.9277490  13.3667930  28.7793350  46.2731090
   5.0538960  25.5964840  49.1089580   4.1567490  25.8204810  49.3562980
   5.0791830  25.7199780  48.1600980  12.0944180  22.4457960  35.0230840
  12.5337460  21.6080390  34.8768660  12.8072600  23.0787360  35.1094980
   3.8810180  22.4678160  47.6846950   3.7417950  23.3400960  48.0534350
   2.9991540  22.1250970  47.5394890  10.2039560  27.3854030  38.9912080
  10.6435470  28.1278360  38.5767470  10.1426450  27.6280600  39.9151040
   5.6790530  28.4099860  49.8932100   5.6505960  28.8142810  49.0260530
   5.5155500  27.4810220  49.7303700  15.6761320  13.7000770  33.3371880
  15.3633980  13.7927600  34.2370950  16.4373790  14.2781800  33.2869310
   2.1943460  21.0660570  37.7949220   2.0741060  21.7922660  37.1830490
   1.8844350  20.2963480  37.3177130  17.6305350  29.1926960  51.1896270
  18.1065070  29.6709850  51.8685350  18.2512510  29.1244450  50.4641770
  17.0338600  26.3839810  48.3496280  17.1601660  26.1451690  47.4313460
  17.0759980  25.5524350  48.8218360  10.8955340  30.0867810  46.9191090
  11.4100010  29.9975820  47.7213520  10.0524420  30.4327510  47.2119000
   5.3498120  30.1521680  38.1246710   5.1740600  29.2357220  37.9114510
   4.4953860  30.5108970  38.3644510  12.5735870  27.8810710  34.9073090
  11.8801030  27.8788000  34.2475370  13.3158730  27.4570030  34.4767260
  12.1385800  29.5073420  38.9821580  12.5942750  28.7262800  39.2960200
  12.4778320  30.2180240  39.5262760  16.8862610  18.4372270  49.3146020
  16.2706880  18.9451940  48.7861480  16.5659030  17.5370600  49.2571960
   4.6607120  14.4095640  41.1772890   4.2175270  15.1905180  40.8457410
   5.2192110  14.7325530  41.8843830   8.9476930  17.2764160  46.7808210
   8.4856300  17.4847180  47.5928150   8.5455040  16.4623510  46.4778880
  13.9481440  18.4973110  47.9104870  13.0975030  18.1978860  48.2313940
  13.7883230  18.7415120  46.9988690  11.0431150  19.9974860  50.0103660
  11.3684560  19.1638610  49.6705890  11.8311480  20.5203380  50.1581990
   7.7765940  14.0306340  36.0578720   7.1520120  14.0266210  36.7832030
   7.6896060  13.1637300  35.6614690   6.6983020  14.9542970  43.0362490
   6.9955350  15.8605800  42.9554510   7.2468580  14.4661750  42.4222060
   4.4521340  19.5329210  38.9054140   4.2262260  19.3166380  39.8100760
   3.6713870  19.9657670  38.5600110  11.6819100  19.5392580  37.5044790
  11.0827990  20.2628380  37.3208410  12.2298710  19.4769360  36.7221240
   6.8920550  20.4314790  49.5714410   6.7964150  19.4909520  49.4214810
   7.7352530  20.6529860  49.1762480  10.2883970  18.1756120  39.5348070
  10.6813540  18.4928320  38.7216760  10.6500820  17.2968000  39.6492590
   8.5976140  16.9263430  50.7944930   7.9074460  16.7335630  51.4291020
   9.3408440  17.2098070  51.3269230  10.8739110  20.7661870  43.6298850
  10.1420230  21.2748680  43.9788950  10.4763450  19.9491850  43.3287630
   7.3116500  17.4416070  42.0351340   7.3152560  17.0006020  41.1855880
   8.2067620  17.7633400  42.1423160   3.1618880  17.3242560  40.9945550
   2.8218930  17.8017790  41.7512600   2.3996200  16.8707680  40.6346650
   7.3736650  18.4428150  35.0258100   7.4949470  18.4014630  35.9743920
   6.9885160  19.3052300  34.8704830  11.3365020  16.2195550  43.0421790
  11.3537760  16.6704200  43.8863640  11.0880600  15.3201190  43.2555230
   6.3858150  20.7529290  34.4241400   5.8175050  20.3047540  33.7977310
   7.0947150  21.1122070  33.8906550  14.7635770  13.6327730  48.8808170
  15.0881540  12.9017390  49.4066150  14.7992280  13.3141370  47.9789160
   7.6124470  21.5017850  43.7816750   7.9794600  21.0276420  44.5278090
   7.4229530  22.3759420  44.1225090   5.4023840  20.5426490  46.1000960
   5.0980910  21.4218470  46.3251320   6.3570300  20.6026280  46.1358400
   3.9305630  24.7487480  36.6967810   3.1567890  24.2085100  36.5366530
   4.6600260  24.2294090  36.3585570  14.6893610  23.7452840  42.4894200
  15.4092730  24.2408130  42.0990310  14.4875430  23.0670730  41.8448070
  10.1503550  15.1390800  36.6323590   9.3368160  14.6403970  36.5568900
   9.9565500  15.9789050  36.2159940  10.0712410  23.8161900  48.3763200
  10.0049720  22.8957570  48.1220790   9.4417550  23.9137340  49.0907840
  12.8651940  19.5110450  34.9285750  13.7531560  19.8227680  34.7537090
  12.8357030  18.6382700  34.5366330   3.9743030  24.4167860  40.3346620
   4.4921700  23.6136120  40.2803510   3.5227050  24.3547000  41.1763450
   8.8612530  25.6834140  35.6073920   9.2028230  26.4276370  35.1117240
   8.0325240  25.9965260  35.9698750   4.6600690  21.8413470  50.1311870
   4.3600830  21.9870650  49.2339690   5.4311930  21.2818760  50.0385260
  10.0029140  26.6382470  48.1267000  10.0173680  25.7063430  47.9085910
   9.2954240  26.7242230  48.7656770  15.1366210  20.8222290  34.3965610
  15.0529930  21.2536510  33.5462050  15.8560400  21.2820640  34.8292430
  16.2140350  23.2789810  47.4735580  15.4888540  23.8718590  47.2764970
  16.7415810  23.2713350  46.6748950  11.7439940  25.0049980  40.9719430
  12.0963760  24.4078110  40.3120800  10.8602270  24.6794210  41.1427680
   7.8303220  25.7647670  38.3789840   8.5174350  26.3116880  38.7597430
   7.0435640  26.3088400  38.4139450   7.1330430  22.7693700  37.9915200
   7.5893210  23.5798950  38.2175390   6.7818640  22.4516840  38.8233690
   9.4363040  28.2800040  45.2207500  10.0805260  28.4859420  45.8980920
   9.7992480  27.5188440  44.7678350   3.0342210  13.1131350  38.4637720
   2.9056840  13.1049250  39.4122640   2.2104230  13.4514440  38.1128730
  10.7095120  26.2832390  43.9384950  11.3517350  25.5825550  44.0517120
  11.2344470  27.0630830  43.7581840  12.4832740  27.0827290  47.1421010
  12.8188980  27.6693980  47.8198930  11.5633080  26.9520000  47.3718800
   8.3121320  27.1318620  50.3109070   7.9918190  26.4127860  50.8554760
   7.6379680  27.8073690  50.3845130   6.3535490  27.9779070  35.2542220
   6.3445590  28.7108760  34.6386730   5.4333850  27.7310650  35.3469180
  11.5274920  17.3644780  45.6745870  11.8955740  16.5439990  46.0025440
  10.6673120  17.4246670  46.0901520  14.8936950  16.3201720  36.4833430
  14.2650110  16.4247390  35.7691660  14.3988870  16.5398500  37.2727310
   9.3395090  28.0407310  33.9167410   9.4407070  27.8371300  32.9869390
   8.4396830  27.7865590  34.1215190   6.8620980  18.5987670  37.8991310
   6.1537130  19.0674010  38.3404920   7.1465460  17.9409680  38.5336500
   8.4876910  20.0184370  45.8983840   8.9862160  20.4930190  46.5635690
   8.6299860  19.0947890  46.1053870  10.8936410  15.3238330  39.3387100
  10.7704190  15.3424460  38.3896610  11.8420970  15.3717270  39.4585500
   7.9813200  30.5593630  38.6115080   8.2354700  30.5215020  37.6894450
   7.0325680  30.4326960  38.6043330   5.0656000  16.9072750  35.2742020
   5.9146530  17.3442900  35.2082210   4.6987270  17.2193010  36.1014080
  15.6943770  16.2352330  46.7412230  15.1917370  16.9757730  47.0806040
  16.5100430  16.6236330  46.4249020  13.9865780  21.4785510  40.1873590
  13.0455920  21.4935740  40.3621280  14.3009850  20.6921470  40.6333890
   3.9647420  23.1605110  33.7477550   4.7310690  23.0486470  34.3102980
   4.0422110  22.4643080  33.0954320   2.6594180  20.5930180  34.4310440
   2.7397770  19.6457690  34.5427840   3.5513930  20.9237060  34.5371100
   3.4608890  30.7425570  41.5344980   4.1971370  30.1941030  41.8053550
   3.8449810  31.6081580  41.3950970   2.4667170  29.9271640  50.7230560
   3.2679900  30.2483690  51.1365960   1.9518990  29.5667220  51.4450470
   6.5711200  29.9155880  33.3570550   7.3639810  30.2044710  32.9052340
   6.0515550  29.4848050  32.6783030  11.3031800  26.0351510  50.6705970
  10.6969960  26.0583110  49.9301720  10.9985910  25.3034550  51.2073220
  12.7332170  29.7631800  49.2815380  13.6853920  29.6789820  49.2315620
  12.5860390  30.4273510  49.9549170   7.0888600  25.1359290  33.2212900
   6.9839240  24.5211640  33.9474280   6.9212820  24.6125180  32.4375910
   7.2402920  23.8216090  49.2002130   6.4748590  24.3901090  49.1156800
   7.4218880  23.5292300  48.3070360  10.3291330  24.1979320  33.8254890
   9.7801430  24.6448620  34.4697630  10.9510590  23.6928570  34.3492560
  14.3826270  25.5521420  49.7577150  15.1235740  25.8897180  49.2544610
  13.6198950  25.7213480  49.2046920   2.2188060  20.5574690  50.5616680
   2.2593400  20.2588560  51.4701910   3.0733560  20.9582300  50.4024200
   5.9966450  23.1570240  35.7220190   6.4182870  22.9910110  36.5651580
   6.1217290  22.3470470  35.2275330   4.1593870  19.1366790  48.5291170
   3.6290330  18.6457740  47.9014510   4.8281940  19.5650990  47.9949100
   8.5094090  22.1807850  32.9697290   9.0299750  21.4656870  32.6038440
   9.1562490  22.8193720  33.2697800  13.0571930  23.6036250  48.2932360
  13.4712950  23.7581330  49.1422780  12.1222930  23.7291470  48.4558140
  13.5294100  20.9432410  50.2971510  14.1114870  20.1884730  50.2091990
  13.7055870  21.4739850  49.5202990   4.6466170  16.1029160  48.6088460
   4.5523040  15.4849910  47.8839330   4.0663560  16.8295450  48.3818370
   7.4127610  14.6602400  45.6415850   6.9644910  14.6826660  44.7961400
   6.7792810  14.2621420  46.2386150   7.8187160  23.5556730  46.2628290
   8.2375270  24.3989460  46.0904530   6.8995790  23.6928770  46.0335070
  10.1551060  21.2872910  47.6466130  10.2747270  20.6914050  48.3860970
  11.0145060  21.3242600  47.2267430  12.4938960  21.8410100  46.2228640
  11.9674180  22.3652720  45.6193780  12.8370300  22.4737490  46.8538370
   4.8925350  19.2303470  32.6678350   4.6914410  18.3670830  33.0291690
   4.7217400  19.1436830  31.7299950   5.6694580  29.8609740  47.3786020
   5.1315670  30.5855800  47.0594720   5.9228540  29.3840080  46.5883360
   6.9219830  17.8294260  48.9041950   7.5119520  17.5210110  49.5919770
   6.1040070  17.3574010  49.0601850  11.7413260  17.4460070  49.1374970
  11.0528780  16.7841610  49.0724960  12.4619280  16.9998340  49.5823430
  12.3713660  14.0411700  35.1965230  12.6515950  13.1979600  35.5524650
  11.5979390  14.2734810  35.7103980   3.6908150  16.3304090  32.6556230
   3.9934050  16.3371520  31.7475380   4.4302740  15.9801950  33.1523890
   8.5256790  31.0960950  47.6372670   8.4515490  31.9996090  47.9445040
   7.6235630  30.7772850  47.6094740   6.9093080  15.2738710  33.6412430
   6.5615080  14.5962700  33.0614880   7.1105850  14.8128220  34.4555820
   9.0742120  30.2619460  35.2599030   9.9692910  30.6004430  35.2817790
   9.1059750  29.5398870  34.6323310   2.7138280  25.6346510  33.4886030
   3.1513150  26.1776180  34.1443610   3.1986010  24.8093460  33.4982370
   4.5246000  26.7544550  38.6008260   4.2241540  26.6309520  39.5012170
   4.4183490  25.8953140  38.1923990  16.0536470  28.7923130  47.9665230
  15.4538460  28.8515690  47.2229150  16.1830370  27.8528110  48.0962080
  14.7388110  25.5175110  46.0641390  13.9247950  25.9472270  46.3267180
  15.1462310  26.1293520  45.4510440  13.1989160  16.5967650  34.2595290
  13.6174040  16.4098630  33.4191950  12.8925220  15.7446700  34.5698220
  16.6978890  21.5091790  37.9571090  16.3222490  20.7419720  37.5252380
  15.9682010  21.8914490  38.4446020  16.0878510  20.6563310  47.5910610
  15.8564600  20.4276060  46.6908560  16.3483060  21.5762860  47.5455500
  14.5266580  15.8819740  50.3690310  15.4036760  15.8903140  50.7524310
  14.5387420  15.1450580  49.7582660  15.9729850  19.7349280  41.2578330
  16.4967330  19.2411930  40.6268500  16.5589270  19.8699640  42.0025900
  16.1519570  19.8189150  44.7797880  15.2022280  19.7852690  44.8942870
  16.3332580  20.7289260  44.5447650  15.4629820  18.9922630  37.1970740
  15.9588940  18.7593500  37.9819620  15.2645890  18.1534470  36.7808380
  16.8916980  17.6283580  39.7308420  16.7816260  17.4739620  40.6690690
  17.6524570  17.1004520  39.4883830  15.2382700  13.5677710  46.1891420
  15.8754920  14.1811850  46.5550610  15.3857590  13.6038370  45.2440650
  17.7807250  15.4591500  32.9714560  18.7056560  15.3272680  32.7632850
  17.7583040  15.5384320  33.9251010  17.8545740  16.2302160  35.5971270
  17.0597240  16.1647280  36.1264180  18.0589020  17.1652800  35.5856620
   2.7026730  26.7011620  49.7400290   2.6596360  26.3304530  50.6214750
   2.8337740  27.6389190  49.8802110   6.4032760  28.2571210  45.3410010
   6.1624120  28.5245770  44.4540530   7.3435400  28.4276940  45.3960870
   8.6087180  14.7203900  49.0966520   8.5476070  15.3125730  49.8461930
   9.5487560  14.6129860  48.9516780  11.2461740  14.3773960  48.7358810
  11.8602150  14.6953250  48.0739890  11.7911300  13.8922550  49.3554670
  17.6636920  30.2765590  46.1420650  17.1695200  30.6734460  45.4247780
  17.0550210  29.6514800  46.5357930   1.7683000  13.0568220  48.8497870
   2.3165990  12.8756270  48.0863980   1.8338310  12.2662330  49.3854180
   2.5414760  29.6473870  46.8598070   1.9475080  29.5158570  47.5988110
   2.5338600  28.8112010  46.3940170  11.9869780  12.9406100  45.0628100
  11.1129620  13.2741210  44.8601030  11.8780530  12.4679280  45.8879970
  12.8941760  15.1476970  46.4469820  12.5655120  14.3328730  46.0671550
  13.8424060  15.1046780  46.3235510   5.7772090  29.2277250  42.5955520
   6.2937110  28.6164610  42.0703780   6.4269470  29.7306030  43.0866530
   8.5167590  30.1185740  43.4224500   8.8045400  29.8640040  42.5457510
   9.0290810  29.5663100  44.0130070   9.7344600  13.8575940  44.0021010
   8.9516390  14.3321440  44.2817770   9.4407530  12.9530770  43.8934190
  14.2865670  14.5599040  42.0470100  14.7273760  14.5044140  41.1991700
  14.0173260  15.4757050  42.1180280  16.1504240  14.1914280  40.0578920
  16.0892640  13.2475500  39.9109940  16.9296270  14.2994370  40.6032380
   7.6198820  16.2762690  39.5137040   6.8073330  15.9019580  39.1732920
   8.1240460  15.5207770  39.8158230  12.1223800  12.9405140  40.7520110
  12.7253170  13.5125350  41.2268630  11.3816790  13.5044580  40.5294010
  15.2658400  13.3426700  36.0260390  15.4609030  14.2410150  36.2927820
  14.4788270  13.1113780  36.5193340   3.4510160  14.6887470  35.0636700
   3.9802920  13.9017270  34.9344650   4.0838480  15.3678660  35.2972230
   5.6448000  14.4262610  38.1182090   5.0150740  13.7249920  38.2852220
   5.1053140  15.1866740  37.9015250   8.5839950  31.0401840  50.7892700
   9.5107260  30.8046110  50.8328660   8.5690380  31.8673840  50.3078730
   5.7703560  13.7046590  50.5534580   5.4887830  14.2080190  49.7895400
   6.1523260  12.9068340  50.1876710   4.6612660  30.9722250  35.3402260
   5.3931480  30.6881530  34.7926150   4.9206330  30.7335530  36.2301640
   3.8227450  27.0886980  35.3448590   3.1936330  27.5572080  35.8934420
   3.9375280  26.2436200  35.7794780  12.3719020  13.1200170  51.1315050
  12.2584470  13.4394780  52.0266570  13.1888760  13.5212680  50.8352330
  15.1517510  30.2671700  50.6133740  15.9442830  29.7720930  50.4059700
  15.4450660  30.9461840  51.2209350  11.2777170  21.1392640  21.4949790
  11.1971220  20.2247250  21.2241500  10.8641590  21.6359710  20.7889500
   9.4095210  22.9171660  23.3759060   8.6337310  22.4372100  23.6657630
  10.0608140  22.2377310  23.2015220   3.4261040  23.2291470  24.2534820
   2.5945920  22.9740180  24.6531330   4.0342020  23.3002240  24.9892740
  13.4302640  27.3231850  22.1558190  12.9684170  26.5519090  22.4845360
  14.2428190  27.3497920  22.6610640   3.4062300  27.2631560  24.4492840
   3.7090340  26.3729300  24.2703060   4.1505890  27.8201780  24.2215090
   9.6565950  29.6089860  21.7762180   9.0377390  30.0647360  21.2056620
  10.5117730  29.7641320  21.3751880   8.8504200  25.5928850  23.3829220
   8.7812480  24.6518790  23.2218350   9.6124060  25.6830260  23.9551790
   9.8809370  18.3999230  23.6098150  10.2574190  17.5271110  23.4971820
   9.7828880  18.7357930  22.7188590   4.0114380  16.7724860  19.0715590
   4.1181130  17.6728590  19.3784350   3.1006740  16.7242830  18.7810240
  13.6633490  15.8949670  20.5426490  14.4843110  15.4046240  20.5851970
  13.6967570  16.4847330  21.2958330   5.8522110  19.7411230  23.4040770
   6.3600330  20.2392200  24.0445790   6.3835350  18.9646430  23.2280130
  17.9533040  17.9116420  27.1070120  17.2485210  18.2998130  26.5885230
  18.2190960  18.6066710  27.7091050   4.1358210  14.3809790  27.6704190
   4.1376650  14.8982180  26.8650090   3.3062520  13.9039970  27.6474120
  10.5229300  24.4929100  19.1694090   9.9046570  24.9578550  18.6056810
  11.0352550  25.1856580  19.5863600   5.3861060  24.0204970  25.8477690
   5.0530440  24.6473890  26.4898760   5.5627740  24.5466850  25.0679360
  13.8994970  17.8350050  23.3154030  13.1950540  18.1234940  23.8957140
  14.2607130  18.6450160  22.9553590   3.8173540  16.0919750  25.6774640
   4.1590350  16.9361800  25.3828510   2.8789350  16.2403490  25.7939980
   4.5980160  25.9885770  27.6626870   5.2154160  26.6636850  27.3811320
   3.7373280  26.3973750  27.5714370  15.5157750  27.4525180  25.5781510
  14.8321270  28.1224290  25.5698180  16.0552040  27.6505830  24.8126370
  16.9681890  17.2804840  23.7063240  16.0206800  17.3143820  23.8378670
  17.2931880  18.0943790  24.0912600   7.5001430  13.5802020  22.0019230
   7.8076410  13.0248910  21.2854730   6.5702130  13.7146480  21.8192220
  13.0516490  29.2969310  24.2926690  13.0643650  28.8931600  23.4248950
  12.4991710  30.0716600  24.1888120  14.3461910  26.0185530  19.3816860
  14.2358240  25.0759860  19.5066280  14.3430160  26.3801170  20.2679620
  12.4501930  24.1999150  25.6209300  12.8670720  23.9859260  24.7862760
  13.1741750  24.4571940  26.1917920   9.8882190  21.6450850  18.7379350
   8.9611470  21.5788230  18.9667820  10.0407010  22.5830980  18.6234590
   9.8751270  17.9167850  15.7346510   8.9354940  18.0781810  15.8198970
  10.1934530  18.6353530  15.1882500  16.3964030  22.5986370  25.7125540
  15.5682660  22.6679460  25.2375670  16.9914510  23.1840680  25.2441370
  13.9179480  23.2071150  19.2414600  13.2991900  22.8690700  18.5940900
  13.9003930  22.5630910  19.9493790  13.3606040  19.3855690  26.6580410
  12.9477220  20.2109400  26.9120400  12.6281990  18.8000730  26.4656770
   5.4938830  22.1715590  21.5199080   5.0895830  21.4592840  21.0244980
   5.5801950  21.8268830  22.4087120   5.9620530  25.8583150  23.6838290
   5.6648820  25.2528620  23.0046070   6.9120350  25.8960460  23.5727650
   4.2067450  18.9458800  25.2998120   4.7582040  19.0554140  24.5251370
   4.7210960  19.3196400  26.0153350  14.0506140  29.4315020  27.3461390
  13.5736700  30.2387210  27.1534000  13.3667930  28.7793350  27.4987600
   5.0538960  25.5964840  30.3346090   4.1567490  25.8204810  30.5819490
   5.0791830  25.7199780  29.3857490  12.0944180  22.4457960  16.2487350
  12.5337460  21.6080390  16.1025170  12.8072600  23.0787360  16.3351490
   3.8810180  22.4678160  28.9103460   3.7417950  23.3400960  29.2790860
   2.9991540  22.1250970  28.7651400  10.2039560  27.3854030  20.2168590
  10.6435470  28.1278360  19.8023980  10.1426450  27.6280600  21.1407550
   5.6790530  28.4099860  31.1188610   5.6505960  28.8142810  30.2517040
   5.5155500  27.4810220  30.9560210  15.6761320  13.7000770  14.5628390
  15.3633980  13.7927600  15.4627460  16.4373790  14.2781800  14.5125820
   2.1943460  21.0660570  19.0205730   2.0741060  21.7922660  18.4087000
   1.8844350  20.2963480  18.5433640  10.8955340  30.0867810  28.1447600
  11.4100010  29.9975820  28.9470030  10.0524420  30.4327510  28.4375510
  12.8709740  30.3723150  17.5731600  12.7110880  30.0826090  18.4713430
  12.7056450  29.5963280  17.0376830   5.3498120  30.1521680  19.3503220
   5.1740600  29.2357220  19.1371020   4.4953860  30.5108970  19.5901020
  12.5735870  27.8810710  16.1329600  11.8801030  27.8788000  15.4731880
  13.3158730  27.4570030  15.7023770  12.1385800  29.5073420  20.2078090
  12.5942750  28.7262800  20.5216710  12.4778320  30.2180240  20.7519270
  16.8862610  18.4372270  30.5402530  16.2706880  18.9451940  30.0117990
  16.5659030  17.5370600  30.4828470   4.6607120  14.4095640  22.4029400
   4.2175270  15.1905180  22.0713920   5.2192110  14.7325530  23.1100340
   8.9476930  17.2764160  28.0064720   8.4856300  17.4847180  28.8184660
   8.5455040  16.4623510  27.7035390  13.9481440  18.4973110  29.1361380
  13.0975030  18.1978860  29.4570450  13.7883230  18.7415120  28.2245200
  11.0431150  19.9974860  31.2360170  11.3684560  19.1638610  30.8962400
  11.8311480  20.5203380  31.3838500   7.7765940  14.0306340  17.2835230
   7.1520120  14.0266210  18.0088540   7.6896060  13.1637300  16.8871200
   6.6983020  14.9542970  24.2619000   6.9955350  15.8605800  24.1811020
   7.2468580  14.4661750  23.6478570   4.4521340  19.5329210  20.1310650
   4.2262260  19.3166380  21.0357270   3.6713870  19.9657670  19.7856620
  11.6819100  19.5392580  18.7301300  11.0827990  20.2628380  18.5464920
  12.2298710  19.4769360  17.9477750   6.8920550  20.4314790  30.7970920
   6.7964150  19.4909520  30.6471320   7.7352530  20.6529860  30.4018990
  10.2883970  18.1756120  20.7604580  10.6813540  18.4928320  19.9473270
  10.6500820  17.2968000  20.8749100   8.5976140  16.9263430  32.0201440
   7.9074460  16.7335630  32.6547530   9.3408440  17.2098070  32.5525740
  10.8739110  20.7661870  24.8555360  10.1420230  21.2748680  25.2045460
  10.4763450  19.9491850  24.5544140   7.3116500  17.4416070  23.2607850
   7.3152560  17.0006020  22.4112390   8.2067620  17.7633400  23.3679670
   3.1618880  17.3242560  22.2202060   2.8218930  17.8017790  22.9769110
   2.3996200  16.8707680  21.8603160   7.3736650  18.4428150  16.2514610
   7.4949470  18.4014630  17.2000430   6.9885160  19.3052300  16.0961340
  11.3365020  16.2195550  24.2678300  11.3537760  16.6704200  25.1120150
  11.0880600  15.3201190  24.4811740   6.3858150  20.7529290  15.6497910
   5.8175050  20.3047540  15.0233820   7.0947150  21.1122070  15.1163060
  14.7635770  13.6327730  30.1064680  15.0881540  12.9017390  30.6322660
  14.7992280  13.3141370  29.2045670   7.6124470  21.5017850  25.0073260
   7.9794600  21.0276420  25.7534600   7.4229530  22.3759420  25.3481600
   5.4023840  20.5426490  27.3257470   5.0980910  21.4218470  27.5507830
   6.3570300  20.6026280  27.3614910   3.9305630  24.7487480  17.9224320
   3.1567890  24.2085100  17.7623040   4.6600260  24.2294090  17.5842080
  14.6893610  23.7452840  23.7150710  15.4092730  24.2408130  23.3246820
  14.4875430  23.0670730  23.0704580  10.1503550  15.1390800  17.8580100
   9.3368160  14.6403970  17.7825410   9.9565500  15.9789050  17.4416450
  10.0712410  23.8161900  29.6019710  10.0049720  22.8957570  29.3477300
   9.4417550  23.9137340  30.3164350  12.8651940  19.5110450  16.1542260
  13.7531560  19.8227680  15.9793600  12.8357030  18.6382700  15.7622840
   3.9743030  24.4167860  21.5603130   4.4921700  23.6136120  21.5060020
   3.5227050  24.3547000  22.4019960   8.8612530  25.6834140  16.8330430
   9.2028230  26.4276370  16.3373750   8.0325240  25.9965260  17.1955260
   4.6600690  21.8413470  31.3568380   4.3600830  21.9870650  30.4596200
   5.4311930  21.2818760  31.2641770  10.0029140  26.6382470  29.3523510
  10.0173680  25.7063430  29.1342420   9.2954240  26.7242230  29.9913280
  15.1366210  20.8222290  15.6222120  15.0529930  21.2536510  14.7718560
  15.8560400  21.2820640  16.0548940  16.1653460  27.6764550  18.3504250
  15.5229620  27.0220170  18.6247970  15.7784120  28.0819640  17.5744920
  11.7439940  25.0049980  22.1975940  12.0963760  24.4078110  21.5377310
  10.8602270  24.6794210  22.3684190   7.8303220  25.7647670  19.6046350
   8.5174350  26.3116880  19.9853940   7.0435640  26.3088400  19.6395960
   7.1330430  22.7693700  19.2171710   7.5893210  23.5798950  19.4431900
   6.7818640  22.4516840  20.0490200   9.4363040  28.2800040  26.4464010
  10.0805260  28.4859420  27.1237430   9.7992480  27.5188440  25.9934860
   3.0342210  13.1131350  19.6894230   2.9056840  13.1049250  20.6379150
   2.2104230  13.4514440  19.3385240  10.7095120  26.2832390  25.1641460
  11.3517350  25.5825550  25.2773630  11.2344470  27.0630830  24.9838350
  14.5550840  26.5681010  14.8880600  14.3288420  25.8511450  15.4805240
  14.1647040  26.3193450  14.0502350  12.4832740  27.0827290  28.3677520
  12.8188980  27.6693980  29.0455440  11.5633080  26.9520000  28.5975310
  14.1367090  24.4852950  16.5494760  13.8488790  24.9465640  17.3372640
  14.9319260  24.0250720  16.8178980   8.3121320  27.1318620  31.5365580
   7.9918190  26.4127860  32.0811270   7.6379680  27.8073690  31.6101640
   6.3535490  27.9779070  16.4798730   6.3445590  28.7108760  15.8643240
   5.4333850  27.7310650  16.5725690  11.5274920  17.3644780  26.9002380
  11.8955740  16.5439990  27.2281950  10.6673120  17.4246670  27.3158030
  14.8936950  16.3201720  17.7089940  14.2650110  16.4247390  16.9948170
  14.3988870  16.5398500  18.4983820   9.3395090  28.0407310  15.1423920
   9.4407070  27.8371300  14.2125900   8.4396830  27.7865590  15.3471700
   6.8620980  18.5987670  19.1247820   6.1537130  19.0674010  19.5661430
   7.1465460  17.9409680  19.7593010   8.4876910  20.0184370  27.1240350
   8.9862160  20.4930190  27.7892200   8.6299860  19.0947890  27.3310380
  10.8936410  15.3238330  20.5643610  10.7704190  15.3424460  19.6153120
  11.8420970  15.3717270  20.6842010   7.9813200  30.5593630  19.8371590
   8.2354700  30.5215020  18.9150960   7.0325680  30.4326960  19.8299840
   5.0656000  16.9072750  16.4998530   5.9146530  17.3442900  16.4338720
   4.6987270  17.2193010  17.3270590  15.6943770  16.2352330  27.9668740
  15.1917370  16.9757730  28.3062550  16.5100430  16.6236330  27.6505530
  13.9865780  21.4785510  21.4130100  13.0455920  21.4935740  21.5877790
  14.3009850  20.6921470  21.8590400   3.9647420  23.1605110  14.9734060
   4.7310690  23.0486470  15.5359490   4.0422110  22.4643080  14.3210830
   2.6594180  20.5930180  15.6566950   2.7397770  19.6457690  15.7684350
   3.5513930  20.9237060  15.7627610  15.9891360  28.6494360  23.0884360
  16.1138780  29.4725530  23.5608170  16.8556920  28.4385090  22.7408510
   3.4608890  30.7425570  22.7601490   4.1971370  30.1941030  23.0310060
   3.8449810  31.6081580  22.6207480   2.4667170  29.9271640  31.9487070
   3.2679900  30.2483690  32.3622470   1.9518990  29.5667220  32.6706980
   6.5711200  29.9155880  14.5827060   7.3639810  30.2044710  14.1308850
   6.0515550  29.4848050  13.9039540  12.7332170  29.7631800  30.5071890
  13.6853920  29.6789820  30.4572130  12.5860390  30.4273510  31.1805680
  15.6241370  29.1426010  16.0063800  15.3382880  28.7291150  15.1917980
  15.4260920  30.0713720  15.8864320   7.0888600  25.1359290  14.4469410
   6.9839240  24.5211640  15.1730790   6.9212820  24.6125180  13.6632420
   7.2402920  23.8216090  30.4258640   6.4748590  24.3901090  30.3413310
   7.4218880  23.5292300  29.5326870  10.3291330  24.1979320  15.0511400
   9.7801430  24.6448620  15.6954140  10.9510590  23.6928570  15.5749070
   2.2188060  20.5574690  31.7873190   2.2593400  20.2588560  32.6958420
   3.0733560  20.9582300  31.6280710   5.9966450  23.1570240  16.9476700
   6.4182870  22.9910110  17.7908090   6.1217290  22.3470470  16.4531840
   4.1593870  19.1366790  29.7547680   3.6290330  18.6457740  29.1271020
   4.8281940  19.5650990  29.2205610   8.5094090  22.1807850  14.1953800
   9.0299750  21.4656870  13.8294950   9.1562490  22.8193720  14.4954310
   4.6466170  16.1029160  29.8344970   4.5523040  15.4849910  29.1095840
   4.0663560  16.8295450  29.6074880   7.4127610  14.6602400  26.8672360
   6.9644910  14.6826660  26.0217910   6.7792810  14.2621420  27.4642660
   7.8187160  23.5556730  27.4884800   8.2375270  24.3989460  27.3161040
   6.8995790  23.6928770  27.2591580  10.1551060  21.2872910  28.8722640
  10.2747270  20.6914050  29.6117480  11.0145060  21.3242600  28.4523940
  12.4938960  21.8410100  27.4485150  11.9674180  22.3652720  26.8450290
  12.8370300  22.4737490  28.0794880   4.8925350  19.2303470  13.8934860
   4.6914410  18.3670830  14.2548200   4.7217400  19.1436830  12.9556460
   5.6694580  29.8609740  28.6042530   5.1315670  30.5855800  28.2851230
   5.9228540  29.3840080  27.8139870   6.9219830  17.8294260  30.1298460
   7.5119520  17.5210110  30.8176280   6.1040070  17.3574010  30.2858360
  11.7413260  17.4460070  30.3631480  11.0528780  16.7841610  30.2981470
  12.4619280  16.9998340  30.8079940  12.3713660  14.0411700  16.4221740
  12.6515950  13.1979600  16.7781160  11.5979390  14.2734810  16.9360490
   3.6908150  16.3304090  13.8812740   3.9934050  16.3371520  12.9731890
   4.4302740  15.9801950  14.3780400   8.5256790  31.0960950  28.8629180
   8.4515490  31.9996090  29.1701550   7.6235630  30.7772850  28.8351250
   6.9093080  15.2738710  14.8668940   6.5615080  14.5962700  14.2871390
   7.1105850  14.8128220  15.6812330   9.0742120  30.2619460  16.4855540
   9.9692910  30.6004430  16.5074300   9.1059750  29.5398870  15.8579820
   2.7138280  25.6346510  14.7142540   3.1513150  26.1776180  15.3700120
   3.1986010  24.8093460  14.7238880   4.5246000  26.7544550  19.8264770
   4.2241540  26.6309520  20.7268680   4.4183490  25.8953140  19.4180500
  17.2937920  26.5340950  14.5291450  16.4630880  26.6017600  14.9998680
  17.4709750  27.4245070  14.2258310  16.7494380  23.2788430  17.0325650
  17.5113290  23.8485080  17.1385340  16.7648750  22.7115630  17.8033960
  17.7554350  24.1338530  21.8767580  18.1263180  23.3505850  21.4703550
  18.3956280  24.8227630  21.6984880  14.7388110  25.5175110  27.2897900
  13.9247950  25.9472270  27.5523690  15.1462310  26.1293520  26.6766950
  16.8013550  23.5722800  14.1898170  17.0762390  24.4801680  14.0617390
  16.6124290  23.5085330  15.1260160  13.1989160  16.5967650  15.4851800
  13.6174040  16.4098630  14.6448460  12.8925220  15.7446700  15.7954730
  16.6978890  21.5091790  19.1827600  16.3222490  20.7419720  18.7508890
  15.9682010  21.8914490  19.6702530  16.0878510  20.6563310  28.8167120
  15.8564600  20.4276060  27.9165070  16.3483060  21.5762860  28.7712010
  14.5266580  15.8819740  31.5946820  15.4036760  15.8903140  31.9780820
  14.5387420  15.1450580  30.9839170  15.9729850  19.7349280  22.4834840
  16.4967330  19.2411930  21.8525010  16.5589270  19.8699640  23.2282410
  16.1519570  19.8189150  26.0054390  15.2022280  19.7852690  26.1199380
  16.3332580  20.7289260  25.7704160  15.4629820  18.9922630  18.4227250
  15.9588940  18.7593500  19.2076130  15.2645890  18.1534470  18.0064890
  16.8916980  17.6283580  20.9564930  16.7816260  17.4739620  21.8947200
  17.6524570  17.1004520  20.7140340  15.2382700  13.5677710  27.4147930
  15.8754920  14.1811850  27.7807120  15.3857590  13.6038370  26.4697160
  17.7807250  15.4591500  14.1971070  18.7056560  15.3272680  13.9889360
  17.7583040  15.5384320  15.1507520  17.8545740  16.2302160  16.8227780
  17.0597240  16.1647280  17.3520690  18.0589020  17.1652800  16.8113130
  14.7964160  30.2693710  20.8166170  15.3923230  29.9478280  20.1400590
  15.0542310  29.7965530  21.6079440   2.7026730  26.7011620  30.9656800
   2.6596360  26.3304530  31.8471260   2.8337740  27.6389190  31.1058620
   6.4032760  28.2571210  26.5666520   6.1624120  28.5245770  25.6797040
   7.3435400  28.4276940  26.6217380   8.6087180  14.7203900  30.3223030
   8.5476070  15.3125730  31.0718440   9.5487560  14.6129860  30.1773290
  11.2461740  14.3773960  29.9615320  11.8602150  14.6953250  29.2996400
  11.7911300  13.8922550  30.5811180   1.7683000  13.0568220  30.0754380
   2.3165990  12.8756270  29.3120490   1.8338310  12.2662330  30.6110690
   2.5414760  29.6473870  28.0854580   1.9475080  29.5158570  28.8244620
   2.5338600  28.8112010  27.6196680  11.9869780  12.9406100  26.2884610
  11.1129620  13.2741210  26.0857540  11.8780530  12.4679280  27.1136480
  12.8941760  15.1476970  27.6726330  12.5655120  14.3328730  27.2928060
  13.8424060  15.1046780  27.5492020  15.3476370  30.9189010  24.6463900
  14.8879340  31.6704820  24.2721920  14.7188830  30.1995480  24.5878700
   5.7772090  29.2277250  23.8212030   6.2937110  28.6164610  23.2960290
   6.4269470  29.7306030  24.3123040   8.5167590  30.1185740  24.6481010
   8.8045400  29.8640040  23.7714020   9.0290810  29.5663100  25.2386580
   9.7344600  13.8575940  25.2277520   8.9516390  14.3321440  25.5074280
   9.4407530  12.9530770  25.1190700  14.2865670  14.5599040  23.2726610
  14.7273760  14.5044140  22.4248210  14.0173260  15.4757050  23.3436790
  16.1504240  14.1914280  21.2835430  16.0892640  13.2475500  21.1366450
  16.9296270  14.2994370  21.8288890   7.6198820  16.2762690  20.7393550
   6.8073330  15.9019580  20.3989430   8.1240460  15.5207770  21.0414740
  12.1223800  12.9405140  21.9776620  12.7253170  13.5125350  22.4525140
  11.3816790  13.5044580  21.7550520  15.2658400  13.3426700  17.2516900
  15.4609030  14.2410150  17.5184330  14.4788270  13.1113780  17.7449850
   3.4510160  14.6887470  16.2893210   3.9802920  13.9017270  16.1601160
   4.0838480  15.3678660  16.5228740   5.6448000  14.4262610  19.3438600
   5.0150740  13.7249920  19.5108730   5.1053140  15.1866740  19.1271760
   8.5839950  31.0401840  32.0149210   9.5107260  30.8046110  32.0585170
   8.5690380  31.8673840  31.5335240  16.8185010  30.5827410  19.0123460
  16.9937200  29.8965150  18.3684380  16.1206580  31.1074460  18.6200130
   5.7703560  13.7046590  31.7791090   5.4887830  14.2080190  31.0151910
   6.1523260  12.9068340  31.4133220   4.6612660  30.9722250  16.5658770
   5.3931480  30.6881530  16.0182660   4.9206330  30.7335530  17.4558150
   3.8227450  27.0886980  16.5705100   3.1936330  27.5572080  17.1190930
   3.9375280  26.2436200  17.0051290  12.3719020  13.1200170  32.3571560
  12.2584470  13.4394780  33.2523080  13.1888760  13.5212680  32.0608840
  15.1517510  30.2671700  31.8390250  15.9442830  29.7720930  31.6316210
  15.4450660  30.9461840  32.4465860  11.2777170  21.1392640   2.7206300
  11.1971220  20.2247250   2.4498010  10.8641590  21.6359710   2.0146010
   9.4095210  22.9171660   4.6015570   8.6337310  22.4372100   4.8914140
  10.0608140  22.2377310   4.4271730   3.4261040  23.2291470   5.4791330
   2.5945920  22.9740180   5.8787840   4.0342020  23.3002240   6.2149250
  13.4302640  27.3231850   3.3814700  12.9684170  26.5519090   3.7101870
  14.2428190  27.3497920   3.8867150   3.4062300  27.2631560   5.6749350
   3.7090340  26.3729300   5.4959570   4.1505890  27.8201780   5.4471600
   9.6565950  29.6089860   3.0018690   9.0377390  30.0647360   2.4313130
  10.5117730  29.7641320   2.6008390   8.8504200  25.5928850   4.6085730
   8.7812480  24.6518790   4.4474860   9.6124060  25.6830260   5.1808300
   9.8809370  18.3999230   4.8354660  10.2574190  17.5271110   4.7228330
   9.7828880  18.7357930   3.9445100  13.6633490  15.8949670   1.7683000
  14.4843110  15.4046240   1.8108480  13.6967570  16.4847330   2.5214840
   5.8522110  19.7411230   4.6297280   6.3600330  20.2392200   5.2702300
   6.3835350  18.9646430   4.4536640  17.9533040  17.9116420   8.3326630
  17.2485210  18.2998130   7.8141740  18.2190960  18.6066710   8.9347560
   4.1358210  14.3809790   8.8960700   4.1376650  14.8982180   8.0906600
   3.3062520  13.9039970   8.8730630   5.3861060  24.0204970   7.0734200
   5.0530440  24.6473890   7.7155270   5.5627740  24.5466850   6.2935870
  13.8994970  17.8350050   4.5410540  13.1950540  18.1234940   5.1213650
  14.2607130  18.6450160   4.1810100   3.8173540  16.0919750   6.9031150
   4.1590350  16.9361800   6.6085020   2.8789350  16.2403490   7.0196490
   4.5980160  25.9885770   8.8883380   5.2154160  26.6636850   8.6067830
   3.7373280  26.3973750   8.7970880  15.5157750  27.4525180   6.8038020
  14.8321270  28.1224290   6.7954690  16.0552040  27.6505830   6.0382880
  16.9681890  17.2804840   4.9319750  16.0206800  17.3143820   5.0635180
  17.2931880  18.0943790   5.3169110   7.5001430  13.5802020   3.2275740
   7.8076410  13.0248910   2.5111240   6.5702130  13.7146480   3.0448730
  13.0516490  29.2969310   5.5183200  13.0643650  28.8931600   4.6505460
  12.4991710  30.0716600   5.4144630  12.4501930  24.1999150   6.8465810
  12.8670720  23.9859260   6.0119270  13.1741750  24.4571940   7.4174430
  16.3964030  22.5986370   6.9382050  15.5682660  22.6679460   6.4632180
  16.9914510  23.1840680   6.4697880  13.3606040  19.3855690   7.8836920
  12.9477220  20.2109400   8.1376910  12.6281990  18.8000730   7.6913280
   5.4938830  22.1715590   2.7455590   5.0895830  21.4592840   2.2501490
   5.5801950  21.8268830   3.6343630   5.9620530  25.8583150   4.9094800
   5.6648820  25.2528620   4.2302580   6.9120350  25.8960460   4.7984160
   4.2067450  18.9458800   6.5254630   4.7582040  19.0554140   5.7507880
   4.7210960  19.3196400   7.2409860  14.0506140  29.4315020   8.5717900
  13.5736700  30.2387210   8.3790510  13.3667930  28.7793350   8.7244110
   5.0538960  25.5964840  11.5602600   4.1567490  25.8204810  11.8076000
   5.0791830  25.7199780  10.6114000   3.8810180  22.4678160  10.1359970
   3.7417950  23.3400960  10.5047370   2.9991540  22.1250970   9.9907910
   5.6790530  28.4099860  12.3445120   5.6505960  28.8142810  11.4773550
   5.5155500  27.4810220  12.1816720  17.6305350  29.1926960  13.6409290
  18.1065070  29.6709850  14.3198370  18.2512510  29.1244450  12.9154790
  17.0338600  26.3839810  10.8009300  17.1601660  26.1451690   9.8826480
  17.0759980  25.5524350  11.2731380  10.8955340  30.0867810   9.3704110
  11.4100010  29.9975820  10.1726540  10.0524420  30.4327510   9.6632020
  16.8862610  18.4372270  11.7659040  16.2706880  18.9451940  11.2374500
  16.5659030  17.5370600  11.7084980   4.6607120  14.4095640   3.6285910
   4.2175270  15.1905180   3.2970430   5.2192110  14.7325530   4.3356850
   8.9476930  17.2764160   9.2321230   8.4856300  17.4847180  10.0441170
   8.5455040  16.4623510   8.9291900  13.9481440  18.4973110  10.3617890
  13.0975030  18.1978860  10.6826960  13.7883230  18.7415120   9.4501710
  11.0431150  19.9974860  12.4616680  11.3684560  19.1638610  12.1218910
  11.8311480  20.5203380  12.6095010   6.6983020  14.9542970   5.4875510
   6.9955350  15.8605800   5.4067530   7.2468580  14.4661750   4.8735080
   6.8920550  20.4314790  12.0227430   6.7964150  19.4909520  11.8727830
   7.7352530  20.6529860  11.6275500   8.5976140  16.9263430  13.2457950
   7.9074460  16.7335630  13.8804040   9.3408440  17.2098070  13.7782250
  10.8739110  20.7661870   6.0811870  10.1420230  21.2748680   6.4301970
  10.4763450  19.9491850   5.7800650   7.3116500  17.4416070   4.4864360
   7.3152560  17.0006020   3.6368900   8.2067620  17.7633400   4.5936180
   3.1618880  17.3242560   3.4458570   2.8218930  17.8017790   4.2025620
   2.3996200  16.8707680   3.0859670  11.3365020  16.2195550   5.4934810
  11.3537760  16.6704200   6.3376660  11.0880600  15.3201190   5.7068250
  14.7635770  13.6327730  11.3321190  15.0881540  12.9017390  11.8579170
  14.7992280  13.3141370  10.4302180   7.6124470  21.5017850   6.2329770
   7.9794600  21.0276420   6.9791110   7.4229530  22.3759420   6.5738110
   5.4023840  20.5426490   8.5513980   5.0980910  21.4218470   8.7764340
   6.3570300  20.6026280   8.5871420  14.6893610  23.7452840   4.9407220
  15.4092730  24.2408130   4.5503330  14.4875430  23.0670730   4.2961090
  10.0712410  23.8161900  10.8276220  10.0049720  22.8957570  10.5733810
   9.4417550  23.9137340  11.5420860   3.9743030  24.4167860   2.7859640
   4.4921700  23.6136120   2.7316530   3.5227050  24.3547000   3.6276470
   4.6600690  21.8413470  12.5824890   4.3600830  21.9870650  11.6852710
   5.4311930  21.2818760  12.4898280  10.0029140  26.6382470  10.5780020
  10.0173680  25.7063430  10.3598930   9.2954240  26.7242230  11.2169790
  16.2140350  23.2789810   9.9248600  15.4888540  23.8718590   9.7277990
  16.7415810  23.2713350   9.1261970  11.7439940  25.0049980   3.4232450
  12.0963760  24.4078110   2.7633820  10.8602270  24.6794210   3.5940700
   9.4363040  28.2800040   7.6720520  10.0805260  28.4859420   8.3493940
   9.7992480  27.5188440   7.2191370  10.7095120  26.2832390   6.3897970
  11.3517350  25.5825550   6.5030140  11.2344470  27.0630830   6.2094860
  12.4832740  27.0827290   9.5934030  12.8188980  27.6693980  10.2711950
  11.5633080  26.9520000   9.8231820   8.3121320  27.1318620  12.7622090
   7.9918190  26.4127860  13.3067780   7.6379680  27.8073690  12.8358150
  11.5274920  17.3644780   8.1258890  11.8955740  16.5439990   8.4538460
  10.6673120  17.4246670   8.5414540   8.4876910  20.0184370   8.3496860
   8.9862160  20.4930190   9.0148710   8.6299860  19.0947890   8.5566890
  15.6943770  16.2352330   9.1925250  15.1917370  16.9757730   9.5319060
  16.5100430  16.6236330   8.8762040  13.9865780  21.4785510   2.6386610
  13.0455920  21.4935740   2.8134300  14.3009850  20.6921470   3.0846910
  15.9891360  28.6494360   4.3140870  16.1138780  29.4725530   4.7864680
  16.8556920  28.4385090   3.9665020   3.4608890  30.7425570   3.9858000
   4.1971370  30.1941030   4.2566570   3.8449810  31.6081580   3.8463990
   2.4667170  29.9271640  13.1743580   3.2679900  30.2483690  13.5878980
   1.9518990  29.5667220  13.8963490  11.3031800  26.0351510  13.1218990
  10.6969960  26.0583110  12.3814740  10.9985910  25.3034550  13.6586240
  12.7332170  29.7631800  11.7328400  13.6853920  29.6789820  11.6828640
  12.5860390  30.4273510  12.4062190   7.2402920  23.8216090  11.6515150
   6.4748590  24.3901090  11.5669820   7.4218880  23.5292300  10.7583380
  14.3826270  25.5521420  12.2090170  15.1235740  25.8897180  11.7057630
  13.6198950  25.7213480  11.6559940   2.2188060  20.5574690  13.0129700
   2.2593400  20.2588560  13.9214930   3.0733560  20.9582300  12.8537220
   4.1593870  19.1366790  10.9804190   3.6290330  18.6457740  10.3527530
   4.8281940  19.5650990  10.4462120  13.0571930  23.6036250  10.7445380
  13.4712950  23.7581330  11.5935800  12.1222930  23.7291470  10.9071160
  13.5294100  20.9432410  12.7484530  14.1114870  20.1884730  12.6605010
  13.7055870  21.4739850  11.9716010   4.6466170  16.1029160  11.0601480
   4.5523040  15.4849910  10.3352350   4.0663560  16.8295450  10.8331390
   7.4127610  14.6602400   8.0928870   6.9644910  14.6826660   7.2474420
   6.7792810  14.2621420   8.6899170   7.8187160  23.5556730   8.7141310
   8.2375270  24.3989460   8.5417550   6.8995790  23.6928770   8.4848090
  10.1551060  21.2872910  10.0979150  10.2747270  20.6914050  10.8373990
  11.0145060  21.3242600   9.6780450  12.4938960  21.8410100   8.6741660
  11.9674180  22.3652720   8.0706800  12.8370300  22.4737490   9.3051390
   5.6694580  29.8609740   9.8299040   5.1315670  30.5855800   9.5107740
   5.9228540  29.3840080   9.0396380   6.9219830  17.8294260  11.3554970
   7.5119520  17.5210110  12.0432790   6.1040070  17.3574010  11.5114870
  11.7413260  17.4460070  11.5887990  11.0528780  16.7841610  11.5237980
  12.4619280  16.9998340  12.0336450   8.5256790  31.0960950  10.0885690
   8.4515490  31.9996090  10.3958060   7.6235630  30.7772850  10.0607760
  16.0536470  28.7923130  10.4178250  15.4538460  28.8515690   9.6742170
  16.1830370  27.8528110  10.5475100  17.7554350  24.1338530   3.1024090
  18.1263180  23.3505850   2.6960060  18.3956280  24.8227630   2.9241390
  14.7388110  25.5175110   8.5154410  13.9247950  25.9472270   8.7780200
  15.1462310  26.1293520   7.9023460  16.0878510  20.6563310  10.0423630
  15.8564600  20.4276060   9.1421580  16.3483060  21.5762860   9.9968520
  14.5266580  15.8819740  12.8203330  15.4036760  15.8903140  13.2037330
  14.5387420  15.1450580  12.2095680  15.9729850  19.7349280   3.7091350
  16.4967330  19.2411930   3.0781520  16.5589270  19.8699640   4.4538920
  16.1519570  19.8189150   7.2310900  15.2022280  19.7852690   7.3455890
  16.3332580  20.7289260   6.9960670  16.8916980  17.6283580   2.1821440
  16.7816260  17.4739620   3.1203710  17.6524570  17.1004520   1.9396850
  15.2382700  13.5677710   8.6404440  15.8754920  14.1811850   9.0063630
  15.3857590  13.6038370   7.6953670   2.7026730  26.7011620  12.1913310
   2.6596360  26.3304530  13.0727770   2.8337740  27.6389190  12.3315130
   6.4032760  28.2571210   7.7923030   6.1624120  28.5245770   6.9053550
   7.3435400  28.4276940   7.8473890   8.6087180  14.7203900  11.5479540
   8.5476070  15.3125730  12.2974950   9.5487560  14.6129860  11.4029800
  11.2461740  14.3773960  11.1871830  11.8602150  14.6953250  10.5252910
  11.7911300  13.8922550  11.8067690  17.6636920  30.2765590   8.5933670
  17.1695200  30.6734460   7.8760800  17.0550210  29.6514800   8.9870950
   1.7683000  13.0568220  11.3010890   2.3165990  12.8756270  10.5377000
   1.8338310  12.2662330  11.8367200   2.5414760  29.6473870   9.3111090
   1.9475080  29.5158570  10.0501130   2.5338600  28.8112010   8.8453190
  11.9869780  12.9406100   7.5141120  11.1129620  13.2741210   7.3114050
  11.8780530  12.4679280   8.3392990  12.8941760  15.1476970   8.8982840
  12.5655120  14.3328730   8.5184570  13.8424060  15.1046780   8.7748530
  15.3476370  30.9189010   5.8720410  14.8879340  31.6704820   5.4978430
  14.7188830  30.1995480   5.8135210   5.7772090  29.2277250   5.0468540
   6.2937110  28.6164610   4.5216800   6.4269470  29.7306030   5.5379550
   8.5167590  30.1185740   5.8737520   8.8045400  29.8640040   4.9970530
   9.0290810  29.5663100   6.4643090   9.7344600  13.8575940   6.4534030
   8.9516390  14.3321440   6.7330790   9.4407530  12.9530770   6.3447210
  14.2865670  14.5599040   4.4983120  14.7273760  14.5044140   3.6504720
  14.0173260  15.4757050   4.5693300  16.1504240  14.1914280   2.5091940
  16.0892640  13.2475500   2.3622960  16.9296270  14.2994370   3.0545400
  12.1223800  12.9405140   3.2033130  12.7253170  13.5125350   3.6781650
  11.3816790  13.5044580   2.9807030   8.5839950  31.0401840  13.2405720
   9.5107260  30.8046110  13.2841680   8.5690380  31.8673840  12.7591750
   5.7703560  13.7046590  13.0047600   5.4887830  14.2080190  12.2408420
   6.1523260  12.9068340  12.6389730  12.3719020  13.1200170  13.5828070
  12.2584470  13.4394780  14.4779590  13.1888760  13.5212680  13.2865350
  15.1517510  30.2671700  13.0646760  15.9442830  29.7720930  12.8572720
  15.4450660  30.9461840  13.6722370  11.2777170   2.3649150  59.0436770
  11.1971220   1.4503760  58.7728480  10.8641590   2.8616220  58.3376480
   9.4095210   4.1428170  60.9246040   8.6337310   3.6628610  61.2144610
  10.0608140   3.4633820  60.7502200   3.4261040   4.4547980  61.8021800
   2.5945920   4.1996690  62.2018310   4.0342020   4.5258750  62.5379720
  13.4302640   8.5488360  59.7045170  12.9684170   7.7775600  60.0332340
  14.2428190   8.5754430  60.2097620   3.4062300   8.4888070  61.9979820
   3.7090340   7.5985810  61.8190040   4.1505890   9.0458290  61.7702070
   9.6565950  10.8346370  59.3249160   9.0377390  11.2903870  58.7543600
  10.5117730  10.9897830  58.9238860   8.8504200   6.8185360  60.9316200
   8.7812480   5.8775300  60.7705330   9.6124060   6.9086770  61.5038770
  10.5229300   5.7185610  56.7181070   9.9046570   6.1835060  56.1543790
  11.0352550   6.4113090  57.1350580  15.5157750   8.6781690  63.1268490
  14.8321270   9.3480800  63.1185160  16.0552040   8.8762340  62.3613350
  13.0516490  10.5225820  61.8413670  13.0643650  10.1188110  60.9735930
  12.4991710  11.2973110  61.7375100  14.3461910   7.2442040  56.9303840
  14.2358240   6.3016370  57.0553260  14.3430160   7.6057680  57.8166600
   9.8882190   2.8707360  56.2866330   8.9611470   2.8044740  56.5154800
  10.0407010   3.8087490  56.1721570  16.3964030   3.8242880  63.2612520
  15.5682660   3.8935970  62.7862650  16.9914510   4.4097190  62.7928350
  13.9179480   4.4327660  56.7901580  13.2991900   4.0947210  56.1427880
  13.9003930   3.7887420  57.4980770   5.4938830   3.3972100  59.0686060
   5.0895830   2.6849350  58.5731960   5.5801950   3.0525340  59.9574100
   5.9620530   7.0839660  61.2325270   5.6648820   6.4785130  60.5533050
   6.9120350   7.1216970  61.1214630  12.0944180   3.6714470  53.7974330
  12.5337460   2.8336900  53.6512150  12.8072600   4.3043870  53.8838470
  10.2039560   8.6110540  57.7655570  10.6435470   9.3534870  57.3510960
  10.1426450   8.8537110  58.6894530   2.1943460   2.2917080  56.5692710
   2.0741060   3.0179170  55.9573980   1.8844350   1.5219990  56.0920620
  12.8709740  11.5979660  55.1218580  12.7110880  11.3082600  56.0200410
  12.7056450  10.8219790  54.5863810   5.3498120  11.3778190  56.8990200
   5.1740600  10.4613730  56.6858000   4.4953860  11.7365480  57.1388000
  12.5735870   9.1067220  53.6816580  11.8801030   9.1044510  53.0218860
  13.3158730   8.6826540  53.2510750  12.1385800  10.7329930  57.7565070
  12.5942750   9.9519310  58.0703690  12.4778320  11.4436750  58.3006250
   6.3858150   1.9785800  53.1984890   5.8175050   1.5304050  52.5720800
   7.0947150   2.3378580  52.6650040   3.9305630   5.9743990  55.4711300
   3.1567890   5.4341610  55.3110020   4.6600260   5.4550600  55.1329060
  14.6893610   4.9709350  61.2637690  15.4092730   5.4664640  60.8733800
  14.4875430   4.2927240  60.6191560   3.9743030   5.6424370  59.1090110
   4.4921700   4.8392630  59.0547000   3.5227050   5.5803510  59.9506940
   8.8612530   6.9090650  54.3817410   9.2028230   7.6532880  53.8860730
   8.0325240   7.2221770  54.7442240  15.1366210   2.0478800  53.1709100
  15.0529930   2.4793020  52.3205540  15.8560400   2.5077150  53.6035920
  16.1653460   8.9021060  55.8991230  15.5229620   8.2476680  56.1734950
  15.7784120   9.3076150  55.1231900  11.7439940   6.2306490  59.7462920
  12.0963760   5.6334620  59.0864290  10.8602270   5.9050720  59.9171170
   7.8303220   6.9904180  57.1533330   8.5174350   7.5373390  57.5340920
   7.0435640   7.5344910  57.1882940   7.1330430   3.9950210  56.7658690
   7.5893210   4.8055460  56.9918880   6.7818640   3.6773350  57.5977180
  10.7095120   7.5088900  62.7128440  11.3517350   6.8082060  62.8260610
  11.2344470   8.2887340  62.5325330  14.5550840   7.7937520  52.4367580
  14.3288420   7.0767960  53.0292220  14.1647040   7.5449960  51.5989330
  14.1367090   5.7109460  54.0981740  13.8488790   6.1722150  54.8859620
  14.9319260   5.2507230  54.3665960   6.3535490   9.2035580  54.0285710
   6.3445590   9.9365270  53.4130220   5.4333850   8.9567160  54.1212670
   9.3395090   9.2663820  52.6910900   9.4407070   9.0627810  51.7612880
   8.4396830   9.0122100  52.8958680   7.9813200  11.7850140  57.3858570
   8.2354700  11.7471530  56.4637940   7.0325680  11.6583470  57.3786820
  13.9865780   2.7042020  58.9617080  13.0455920   2.7192250  59.1364770
  14.3009850   1.9177980  59.4077380   3.9647420   4.3861620  52.5221040
   4.7310690   4.2742980  53.0846470   4.0422110   3.6899590  51.8697810
  15.9891360   9.8750870  60.6371340  16.1138780  10.6982040  61.1095150
  16.8556920   9.6641600  60.2895490   3.4608890  11.9682080  60.3088470
   4.1971370  11.4197540  60.5797040   3.8449810  12.8338090  60.1694460
   6.5711200  11.1412390  52.1314040   7.3639810  11.4301220  51.6795830
   6.0515550  10.7104560  51.4526520  15.6241370  10.3682520  53.5550780
  15.3382880   9.9547660  52.7404960  15.4260920  11.2970230  53.4351300
   7.0888600   6.3615800  51.9956390   6.9839240   5.7468150  52.7217770
   6.9212820   5.8381690  51.2119400  10.3291330   5.4235830  52.5998380
   9.7801430   5.8705130  53.2441120  10.9510590   4.9185080  53.1236050
   5.9966450   4.3826750  54.4963680   6.4182870   4.2166620  55.3395070
   6.1217290   3.5726980  54.0018820   8.5094090   3.4064360  51.7440780
   9.0299750   2.6913380  51.3781930   9.1562490   4.0450230  52.0441290
   9.0742120  11.4875970  54.0342520   9.9692910  11.8260940  54.0561280
   9.1059750  10.7655380  53.4066800   2.7138280   6.8603020  52.2629520
   3.1513150   7.4032690  52.9187100   3.1986010   6.0349970  52.2725860
   4.5246000   7.9801060  57.3751750   4.2241540   7.8566030  58.2755660
   4.4183490   7.1209650  56.9667480  17.2937920   7.7597460  52.0778430
  16.4630880   7.8274110  52.5485660  17.4709750   8.6501580  51.7745290
  16.7494380   4.5044940  54.5812630  17.5113290   5.0741590  54.6872320
  16.7648750   3.9372140  55.3520940  17.7554350   5.3595040  59.4254560
  18.1263180   4.5762360  59.0190530  18.3956280   6.0484140  59.2471860
  16.8013550   4.7979310  51.7385150  17.0762390   5.7058190  51.6104370
  16.6124290   4.7341840  52.6747140  16.6978890   2.7348300  56.7314580
  16.3222490   1.9676230  56.2995870  15.9682010   3.1171000  57.2189510
  14.7964160  11.4950220  58.3653150  15.3923230  11.1734790  57.6887570
  15.0542310  11.0222040  59.1566420  15.3476370  12.1445520  62.1950880
  14.8879340  12.8961330  61.8208900  14.7188830  11.4251990  62.1365680
   5.7772090  10.4533760  61.3699010   6.2937110   9.8421120  60.8447270
   6.4269470  10.9562540  61.8610020   8.5167590  11.3442250  62.1967990
   8.8045400  11.0896550  61.3201000   9.0290810  10.7919610  62.7873560
  16.8185010  11.8083920  56.5610440  16.9937200  11.1221660  55.9171360
  16.1206580  12.3330970  56.1687110   4.6612660  12.1978760  54.1145750
   5.3931480  11.9138040  53.5669640   4.9206330  11.9592040  55.0045130
   3.8227450   8.3143490  54.1192080   3.1936330   8.7828590  54.6677910
   3.9375280   7.4692710  54.5538270  11.2777170   2.3649150  40.2693280
  11.1971220   1.4503760  39.9984990  10.8641590   2.8616220  39.5632990
   9.4095210   4.1428170  42.1502550   8.6337310   3.6628610  42.4401120
  10.0608140   3.4633820  41.9758710   3.4261040   4.4547980  43.0278310
   2.5945920   4.1996690  43.4274820   4.0342020   4.5258750  43.7636230
  13.4302640   8.5488360  40.9301680  12.9684170   7.7775600  41.2588850
  14.2428190   8.5754430  41.4354130   3.4062300   8.4888070  43.2236330
   3.7090340   7.5985810  43.0446550   4.1505890   9.0458290  42.9958580
   9.6565950  10.8346370  40.5505670   9.0377390  11.2903870  39.9800110
  10.5117730  10.9897830  40.1495370   8.8504200   6.8185360  42.1572710
   8.7812480   5.8775300  41.9961840   9.6124060   6.9086770  42.7295280
  10.5229300   5.7185610  37.9437580   9.9046570   6.1835060  37.3800300
  11.0352550   6.4113090  38.3607090   5.3861060   5.2461480  44.6221180
   5.0530440   5.8730400  45.2642250   5.5627740   5.7723360  43.8422850
   4.5980160   7.2142280  46.4370360   5.2154160   7.8893360  46.1554810
   3.7373280   7.6230260  46.3457860  15.5157750   8.6781690  44.3525000
  14.8321270   9.3480800  44.3441670  16.0552040   8.8762340  43.5869860
  13.0516490  10.5225820  43.0670180  13.0643650  10.1188110  42.1992440
  12.4991710  11.2973110  42.9631610  14.3461910   7.2442040  38.1560350
  14.2358240   6.3016370  38.2809770  14.3430160   7.6057680  39.0423110
  12.4501930   5.4255660  44.3952790  12.8670720   5.2115770  43.5606250
  13.1741750   5.6828450  44.9661410   9.8882190   2.8707360  37.5122840
   8.9611470   2.8044740  37.7411310  10.0407010   3.8087490  37.3978080
  16.3964030   3.8242880  44.4869030  15.5682660   3.8935970  44.0119160
  16.9914510   4.4097190  44.0184860  13.9179480   4.4327660  38.0158090
  13.2991900   4.0947210  37.3684390  13.9003930   3.7887420  38.7237280
   5.4938830   3.3972100  40.2942570   5.0895830   2.6849350  39.7988470
   5.5801950   3.0525340  41.1830610   5.9620530   7.0839660  42.4581780
   5.6648820   6.4785130  41.7789560   6.9120350   7.1216970  42.3471140
  14.0506140  10.6571530  46.1204880  13.5736700  11.4643720  45.9277490
  13.3667930  10.0049860  46.2731090   5.0538960   6.8221350  49.1089580
   4.1567490   7.0461320  49.3562980   5.0791830   6.9456290  48.1600980
  12.0944180   3.6714470  35.0230840  12.5337460   2.8336900  34.8768660
  12.8072600   4.3043870  35.1094980   3.8810180   3.6934670  47.6846950
   3.7417950   4.5657470  48.0534350   2.9991540   3.3507480  47.5394890
  10.2039560   8.6110540  38.9912080  10.6435470   9.3534870  38.5767470
  10.1426450   8.8537110  39.9151040   5.6790530   9.6356370  49.8932100
   5.6505960  10.0399320  49.0260530   5.5155500   8.7066730  49.7303700
   2.1943460   2.2917080  37.7949220   2.0741060   3.0179170  37.1830490
   1.8844350   1.5219990  37.3177130  17.6305350  10.4183470  51.1896270
  18.1065070  10.8966360  51.8685350  18.2512510  10.3500960  50.4641770
  17.0338600   7.6096320  48.3496280  17.1601660   7.3708200  47.4313460
  17.0759980   6.7780860  48.8218360  10.8955340  11.3124320  46.9191090
  11.4100010  11.2232330  47.7213520  10.0524420  11.6584020  47.2119000
  12.8709740  11.5979660  36.3475090  12.7110880  11.3082600  37.2456920
  12.7056450  10.8219790  35.8120320   5.3498120  11.3778190  38.1246710
   5.1740600  10.4613730  37.9114510   4.4953860  11.7365480  38.3644510
  12.5735870   9.1067220  34.9073090  11.8801030   9.1044510  34.2475370
  13.3158730   8.6826540  34.4767260  12.1385800  10.7329930  38.9821580
  12.5942750   9.9519310  39.2960200  12.4778320  11.4436750  39.5262760
   6.3858150   1.9785800  34.4241400   5.8175050   1.5304050  33.7977310
   7.0947150   2.3378580  33.8906550   7.6124470   2.7274360  43.7816750
   7.9794600   2.2532930  44.5278090   7.4229530   3.6015930  44.1225090
   5.4023840   1.7683000  46.1000960   5.0980910   2.6474980  46.3251320
   6.3570300   1.8282790  46.1358400   3.9305630   5.9743990  36.6967810
   3.1567890   5.4341610  36.5366530   4.6600260   5.4550600  36.3585570
  14.6893610   4.9709350  42.4894200  15.4092730   5.4664640  42.0990310
  14.4875430   4.2927240  41.8448070  10.0712410   5.0418410  48.3763200
  10.0049720   4.1214080  48.1220790   9.4417550   5.1393850  49.0907840
   3.9743030   5.6424370  40.3346620   4.4921700   4.8392630  40.2803510
   3.5227050   5.5803510  41.1763450   8.8612530   6.9090650  35.6073920
   9.2028230   7.6532880  35.1117240   8.0325240   7.2221770  35.9698750
   4.6600690   3.0669980  50.1311870   4.3600830   3.2127160  49.2339690
   5.4311930   2.5075270  50.0385260  10.0029140   7.8638980  48.1267000
  10.0173680   6.9319940  47.9085910   9.2954240   7.9498740  48.7656770
  15.1366210   2.0478800  34.3965610  15.0529930   2.4793020  33.5462050
  15.8560400   2.5077150  34.8292430  16.2140350   4.5046320  47.4735580
  15.4888540   5.0975100  47.2764970  16.7415810   4.4969860  46.6748950
  16.1653460   8.9021060  37.1247740  15.5229620   8.2476680  37.3991460
  15.7784120   9.3076150  36.3488410  11.7439940   6.2306490  40.9719430
  12.0963760   5.6334620  40.3120800  10.8602270   5.9050720  41.1427680
   7.8303220   6.9904180  38.3789840   8.5174350   7.5373390  38.7597430
   7.0435640   7.5344910  38.4139450   7.1330430   3.9950210  37.9915200
   7.5893210   4.8055460  38.2175390   6.7818640   3.6773350  38.8233690
   9.4363040   9.5056550  45.2207500  10.0805260   9.7115930  45.8980920
   9.7992480   8.7444950  44.7678350  10.7095120   7.5088900  43.9384950
  11.3517350   6.8082060  44.0517120  11.2344470   8.2887340  43.7581840
  14.5550840   7.7937520  33.6624090  14.3288420   7.0767960  34.2548730
  14.1647040   7.5449960  32.8245840  12.4832740   8.3083800  47.1421010
  12.8188980   8.8950490  47.8198930  11.5633080   8.1776510  47.3718800
  14.1367090   5.7109460  35.3238250  13.8488790   6.1722150  36.1116130
  14.9319260   5.2507230  35.5922470   8.3121320   8.3575130  50.3109070
   7.9918190   7.6384370  50.8554760   7.6379680   9.0330200  50.3845130
   6.3535490   9.2035580  35.2542220   6.3445590   9.9365270  34.6386730
   5.4333850   8.9567160  35.3469180   9.3395090   9.2663820  33.9167410
   9.4407070   9.0627810  32.9869390   8.4396830   9.0122100  34.1215190
   7.9813200  11.7850140  38.6115080   8.2354700  11.7471530  37.6894450
   7.0325680  11.6583470  38.6043330  13.9865780   2.7042020  40.1873590
  13.0455920   2.7192250  40.3621280  14.3009850   1.9177980  40.6333890
   3.9647420   4.3861620  33.7477550   4.7310690   4.2742980  34.3102980
   4.0422110   3.6899590  33.0954320  15.9891360   9.8750870  41.8627850
  16.1138780  10.6982040  42.3351660  16.8556920   9.6641600  41.5152000
   3.4608890  11.9682080  41.5344980   4.1971370  11.4197540  41.8053550
   3.8449810  12.8338090  41.3950970   2.4667170  11.1528150  50.7230560
   3.2679900  11.4740200  51.1365960   1.9518990  10.7923730  51.4450470
   6.5711200  11.1412390  33.3570550   7.3639810  11.4301220  32.9052340
   6.0515550  10.7104560  32.6783030  11.3031800   7.2608020  50.6705970
  10.6969960   7.2839620  49.9301720  10.9985910   6.5291060  51.2073220
  12.7332170  10.9888310  49.2815380  13.6853920  10.9046330  49.2315620
  12.5860390  11.6530020  49.9549170  15.6241370  10.3682520  34.7807290
  15.3382880   9.9547660  33.9661470  15.4260920  11.2970230  34.6607810
   7.0888600   6.3615800  33.2212900   6.9839240   5.7468150  33.9474280
   6.9212820   5.8381690  32.4375910   7.2402920   5.0472600  49.2002130
   6.4748590   5.6157600  49.1156800   7.4218880   4.7548810  48.3070360
  10.3291330   5.4235830  33.8254890   9.7801430   5.8705130  34.4697630
  10.9510590   4.9185080  34.3492560  14.3826270   6.7777930  49.7577150
  15.1235740   7.1153690  49.2544610  13.6198950   6.9469990  49.2046920
   2.2188060   1.7831200  50.5616680   2.2593400   1.4845070  51.4701910
   3.0733560   2.1838810  50.4024200   5.9966450   4.3826750  35.7220190
   6.4182870   4.2166620  36.5651580   6.1217290   3.5726980  35.2275330
   8.5094090   3.4064360  32.9697290   9.0299750   2.6913380  32.6038440
   9.1562490   4.0450230  33.2697800  13.0571930   4.8292760  48.2932360
  13.4712950   4.9837840  49.1422780  12.1222930   4.9547980  48.4558140
  13.5294100   2.1688920  50.2971510  14.1114870   1.4141240  50.2091990
  13.7055870   2.6996360  49.5202990   7.8187160   4.7813240  46.2628290
   8.2375270   5.6245970  46.0904530   6.8995790   4.9185280  46.0335070
  10.1551060   2.5129420  47.6466130  10.2747270   1.9170560  48.3860970
  11.0145060   2.5499110  47.2267430  12.4938960   3.0666610  46.2228640
  11.9674180   3.5909230  45.6193780  12.8370300   3.6994000  46.8538370
   5.6694580  11.0866250  47.3786020   5.1315670  11.8112310  47.0594720
   5.9228540  10.6096590  46.5883360   8.5256790  12.3217460  47.6372670
   8.4515490  13.2252600  47.9445040   7.6235630  12.0029360  47.6094740
   9.0742120  11.4875970  35.2599030   9.9692910  11.8260940  35.2817790
   9.1059750  10.7655380  34.6323310   2.7138280   6.8603020  33.4886030
   3.1513150   7.4032690  34.1443610   3.1986010   6.0349970  33.4982370
   4.5246000   7.9801060  38.6008260   4.2241540   7.8566030  39.5012170
   4.4183490   7.1209650  38.1923990  16.0536470  10.0179640  47.9665230
  15.4538460  10.0772200  47.2229150  16.1830370   9.0784620  48.0962080
  17.2937920   7.7597460  33.3034940  16.4630880   7.8274110  33.7742170
  17.4709750   8.6501580  33.0001800  16.7494380   4.5044940  35.8069140
  17.5113290   5.0741590  35.9128830  16.7648750   3.9372140  36.5777450
  17.7554350   5.3595040  40.6511070  18.1263180   4.5762360  40.2447040
  18.3956280   6.0484140  40.4728370  14.7388110   6.7431620  46.0641390
  13.9247950   7.1728780  46.3267180  15.1462310   7.3550030  45.4510440
  16.8013550   4.7979310  32.9641660  17.0762390   5.7058190  32.8360880
  16.6124290   4.7341840  33.9003650  16.6978890   2.7348300  37.9571090
  16.3222490   1.9676230  37.5252380  15.9682010   3.1171000  38.4446020
  16.0878510   1.8819820  47.5910610  15.8564600   1.6532570  46.6908560
  16.3483060   2.8019370  47.5455500  14.7964160  11.4950220  39.5909660
  15.3923230  11.1734790  38.9144080  15.0542310  11.0222040  40.3822930
   2.7026730   7.9268130  49.7400290   2.6596360   7.5561040  50.6214750
   2.8337740   8.8645700  49.8802110   6.4032760   9.4827720  45.3410010
   6.1624120   9.7502280  44.4540530   7.3435400   9.6533450  45.3960870
  17.6636920  11.5022100  46.1420650  17.1695200  11.8990970  45.4247780
  17.0550210  10.8771310  46.5357930   2.5414760  10.8730380  46.8598070
   1.9475080  10.7415080  47.5988110   2.5338600  10.0368520  46.3940170
  15.3476370  12.1445520  43.4207390  14.8879340  12.8961330  43.0465410
  14.7188830  11.4251990  43.3622190   5.7772090  10.4533760  42.5955520
   6.2937110   9.8421120  42.0703780   6.4269470  10.9562540  43.0866530
   8.5167590  11.3442250  43.4224500   8.8045400  11.0896550  42.5457510
   9.0290810  10.7919610  44.0130070   8.5839950  12.2658350  50.7892700
   9.5107260  12.0302620  50.8328660   8.5690380  13.0930350  50.3078730
  16.8185010  11.8083920  37.7866950  16.9937200  11.1221660  37.1427870
  16.1206580  12.3330970  37.3943620   4.6612660  12.1978760  35.3402260
   5.3931480  11.9138040  34.7926150   4.9206330  11.9592040  36.2301640
   3.8227450   8.3143490  35.3448590   3.1936330   8.7828590  35.8934420
   3.9375280   7.4692710  35.7794780  15.1517510  11.4928210  50.6133740
  15.9442830  10.9977440  50.4059700  15.4450660  12.1718350  51.2209350
  11.2777170   2.3649150  21.4949790  11.1971220   1.4503760  21.2241500
  10.8641590   2.8616220  20.7889500   9.4095210   4.1428170  23.3759060
   8.6337310   3.6628610  23.6657630  10.0608140   3.4633820  23.2015220
   3.4261040   4.4547980  24.2534820   2.5945920   4.1996690  24.6531330
   4.0342020   4.5258750  24.9892740  13.4302640   8.5488360  22.1558190
  12.9684170   7.7775600  22.4845360  14.2428190   8.5754430  22.6610640
   3.4062300   8.4888070  24.4492840   3.7090340   7.5985810  24.2703060
   4.1505890   9.0458290  24.2215090   9.6565950  10.8346370  21.7762180
   9.0377390  11.2903870  21.2056620  10.5117730  10.9897830  21.3751880
   8.8504200   6.8185360  23.3829220   8.7812480   5.8775300  23.2218350
   9.6124060   6.9086770  23.9551790  10.5229300   5.7185610  19.1694090
   9.9046570   6.1835060  18.6056810  11.0352550   6.4113090  19.5863600
   5.3861060   5.2461480  25.8477690   5.0530440   5.8730400  26.4898760
   5.5627740   5.7723360  25.0679360   4.5980160   7.2142280  27.6626870
   5.2154160   7.8893360  27.3811320   3.7373280   7.6230260  27.5714370
  15.5157750   8.6781690  25.5781510  14.8321270   9.3480800  25.5698180
  16.0552040   8.8762340  24.8126370  13.0516490  10.5225820  24.2926690
  13.0643650  10.1188110  23.4248950  12.4991710  11.2973110  24.1888120
  14.3461910   7.2442040  19.3816860  14.2358240   6.3016370  19.5066280
  14.3430160   7.6057680  20.2679620  12.4501930   5.4255660  25.6209300
  12.8670720   5.2115770  24.7862760  13.1741750   5.6828450  26.1917920
   9.8882190   2.8707360  18.7379350   8.9611470   2.8044740  18.9667820
  10.0407010   3.8087490  18.6234590  16.3964030   3.8242880  25.7125540
  15.5682660   3.8935970  25.2375670  16.9914510   4.4097190  25.2441370
  13.9179480   4.4327660  19.2414600  13.2991900   4.0947210  18.5940900
  13.9003930   3.7887420  19.9493790   5.4938830   3.3972100  21.5199080
   5.0895830   2.6849350  21.0244980   5.5801950   3.0525340  22.4087120
   5.9620530   7.0839660  23.6838290   5.6648820   6.4785130  23.0046070
   6.9120350   7.1216970  23.5727650  14.0506140  10.6571530  27.3461390
  13.5736700  11.4643720  27.1534000  13.3667930  10.0049860  27.4987600
   5.0538960   6.8221350  30.3346090   4.1567490   7.0461320  30.5819490
   5.0791830   6.9456290  29.3857490  12.0944180   3.6714470  16.2487350
  12.5337460   2.8336900  16.1025170  12.8072600   4.3043870  16.3351490
   3.8810180   3.6934670  28.9103460   3.7417950   4.5657470  29.2790860
   2.9991540   3.3507480  28.7651400  10.2039560   8.6110540  20.2168590
  10.6435470   9.3534870  19.8023980  10.1426450   8.8537110  21.1407550
   5.6790530   9.6356370  31.1188610   5.6505960  10.0399320  30.2517040
   5.5155500   8.7066730  30.9560210   2.1943460   2.2917080  19.0205730
   2.0741060   3.0179170  18.4087000   1.8844350   1.5219990  18.5433640
  17.6305350  10.4183470  32.4152780  18.1065070  10.8966360  33.0941860
  18.2512510  10.3500960  31.6898280  17.0338600   7.6096320  29.5752790
  17.1601660   7.3708200  28.6569970  17.0759980   6.7780860  30.0474870
  10.8955340  11.3124320  28.1447600  11.4100010  11.2232330  28.9470030
  10.0524420  11.6584020  28.4375510  12.8709740  11.5979660  17.5731600
  12.7110880  11.3082600  18.4713430  12.7056450  10.8219790  17.0376830
   5.3498120  11.3778190  19.3503220   5.1740600  10.4613730  19.1371020
   4.4953860  11.7365480  19.5901020  12.5735870   9.1067220  16.1329600
  11.8801030   9.1044510  15.4731880  13.3158730   8.6826540  15.7023770
  12.1385800  10.7329930  20.2078090  12.5942750   9.9519310  20.5216710
  12.4778320  11.4436750  20.7519270   6.3858150   1.9785800  15.6497910
   5.8175050   1.5304050  15.0233820   7.0947150   2.3378580  15.1163060
   7.6124470   2.7274360  25.0073260   7.9794600   2.2532930  25.7534600
   7.4229530   3.6015930  25.3481600   5.4023840   1.7683000  27.3257470
   5.0980910   2.6474980  27.5507830   6.3570300   1.8282790  27.3614910
   3.9305630   5.9743990  17.9224320   3.1567890   5.4341610  17.7623040
   4.6600260   5.4550600  17.5842080  14.6893610   4.9709350  23.7150710
  15.4092730   5.4664640  23.3246820  14.4875430   4.2927240  23.0704580
  10.0712410   5.0418410  29.6019710  10.0049720   4.1214080  29.3477300
   9.4417550   5.1393850  30.3164350   3.9743030   5.6424370  21.5603130
   4.4921700   4.8392630  21.5060020   3.5227050   5.5803510  22.4019960
   8.8612530   6.9090650  16.8330430   9.2028230   7.6532880  16.3373750
   8.0325240   7.2221770  17.1955260   4.6600690   3.0669980  31.3568380
   4.3600830   3.2127160  30.4596200   5.4311930   2.5075270  31.2641770
  10.0029140   7.8638980  29.3523510  10.0173680   6.9319940  29.1342420
   9.2954240   7.9498740  29.9913280  15.1366210   2.0478800  15.6222120
  15.0529930   2.4793020  14.7718560  15.8560400   2.5077150  16.0548940
  16.2140350   4.5046320  28.6992090  15.4888540   5.0975100  28.5021480
  16.7415810   4.4969860  27.9005460  16.1653460   8.9021060  18.3504250
  15.5229620   8.2476680  18.6247970  15.7784120   9.3076150  17.5744920
  11.7439940   6.2306490  22.1975940  12.0963760   5.6334620  21.5377310
  10.8602270   5.9050720  22.3684190   7.8303220   6.9904180  19.6046350
   8.5174350   7.5373390  19.9853940   7.0435640   7.5344910  19.6395960
   7.1330430   3.9950210  19.2171710   7.5893210   4.8055460  19.4431900
   6.7818640   3.6773350  20.0490200   9.4363040   9.5056550  26.4464010
  10.0805260   9.7115930  27.1237430   9.7992480   8.7444950  25.9934860
  10.7095120   7.5088900  25.1641460  11.3517350   6.8082060  25.2773630
  11.2344470   8.2887340  24.9838350  14.5550840   7.7937520  14.8880600
  14.3288420   7.0767960  15.4805240  14.1647040   7.5449960  14.0502350
  12.4832740   8.3083800  28.3677520  12.8188980   8.8950490  29.0455440
  11.5633080   8.1776510  28.5975310  14.1367090   5.7109460  16.5494760
  13.8488790   6.1722150  17.3372640  14.9319260   5.2507230  16.8178980
   8.3121320   8.3575130  31.5365580   7.9918190   7.6384370  32.0811270
   7.6379680   9.0330200  31.6101640   6.3535490   9.2035580  16.4798730
   6.3445590   9.9365270  15.8643240   5.4333850   8.9567160  16.5725690
   9.3395090   9.2663820  15.1423920   9.4407070   9.0627810  14.2125900
   8.4396830   9.0122100  15.3471700   7.9813200  11.7850140  19.8371590
   8.2354700  11.7471530  18.9150960   7.0325680  11.6583470  19.8299840
  13.9865780   2.7042020  21.4130100  13.0455920   2.7192250  21.5877790
  14.3009850   1.9177980  21.8590400   3.9647420   4.3861620  14.9734060
   4.7310690   4.2742980  15.5359490   4.0422110   3.6899590  14.3210830
  15.9891360   9.8750870  23.0884360  16.1138780  10.6982040  23.5608170
  16.8556920   9.6641600  22.7408510   3.4608890  11.9682080  22.7601490
   4.1971370  11.4197540  23.0310060   3.8449810  12.8338090  22.6207480
   2.4667170  11.1528150  31.9487070   3.2679900  11.4740200  32.3622470
   1.9518990  10.7923730  32.6706980   6.5711200  11.1412390  14.5827060
   7.3639810  11.4301220  14.1308850   6.0515550  10.7104560  13.9039540
  11.3031800   7.2608020  31.8962480  10.6969960   7.2839620  31.1558230
  10.9985910   6.5291060  32.4329730  12.7332170  10.9888310  30.5071890
  13.6853920  10.9046330  30.4572130  12.5860390  11.6530020  31.1805680
  15.6241370  10.3682520  16.0063800  15.3382880   9.9547660  15.1917980
  15.4260920  11.2970230  15.8864320   7.0888600   6.3615800  14.4469410
   6.9839240   5.7468150  15.1730790   6.9212820   5.8381690  13.6632420
   7.2402920   5.0472600  30.4258640   6.4748590   5.6157600  30.3413310
   7.4218880   4.7548810  29.5326870  10.3291330   5.4235830  15.0511400
   9.7801430   5.8705130  15.6954140  10.9510590   4.9185080  15.5749070
  14.3826270   6.7777930  30.9833660  15.1235740   7.1153690  30.4801120
  13.6198950   6.9469990  30.4303430   2.2188060   1.7831200  31.7873190
   2.2593400   1.4845070  32.6958420   3.0733560   2.1838810  31.6280710
   5.9966450   4.3826750  16.9476700   6.4182870   4.2166620  17.7908090
   6.1217290   3.5726980  16.4531840   8.5094090   3.4064360  14.1953800
   9.0299750   2.6913380  13.8294950   9.1562490   4.0450230  14.4954310
  13.0571930   4.8292760  29.5188870  13.4712950   4.9837840  30.3679290
  12.1222930   4.9547980  29.6814650  13.5294100   2.1688920  31.5228020
  14.1114870   1.4141240  31.4348500  13.7055870   2.6996360  30.7459500
   7.8187160   4.7813240  27.4884800   8.2375270   5.6245970  27.3161040
   6.8995790   4.9185280  27.2591580  10.1551060   2.5129420  28.8722640
  10.2747270   1.9170560  29.6117480  11.0145060   2.5499110  28.4523940
  12.4938960   3.0666610  27.4485150  11.9674180   3.5909230  26.8450290
  12.8370300   3.6994000  28.0794880   5.6694580  11.0866250  28.6042530
   5.1315670  11.8112310  28.2851230   5.9228540  10.6096590  27.8139870
   8.5256790  12.3217460  28.8629180   8.4515490  13.2252600  29.1701550
   7.6235630  12.0029360  28.8351250   9.0742120  11.4875970  16.4855540
   9.9692910  11.8260940  16.5074300   9.1059750  10.7655380  15.8579820
   2.7138280   6.8603020  14.7142540   3.1513150   7.4032690  15.3700120
   3.1986010   6.0349970  14.7238880   4.5246000   7.9801060  19.8264770
   4.2241540   7.8566030  20.7268680   4.4183490   7.1209650  19.4180500
  16.0536470  10.0179640  29.1921740  15.4538460  10.0772200  28.4485660
  16.1830370   9.0784620  29.3218590  17.2937920   7.7597460  14.5291450
  16.4630880   7.8274110  14.9998680  17.4709750   8.6501580  14.2258310
  16.7494380   4.5044940  17.0325650  17.5113290   5.0741590  17.1385340
  16.7648750   3.9372140  17.8033960  17.7554350   5.3595040  21.8767580
  18.1263180   4.5762360  21.4703550  18.3956280   6.0484140  21.6984880
  14.7388110   6.7431620  27.2897900  13.9247950   7.1728780  27.5523690
  15.1462310   7.3550030  26.6766950  16.8013550   4.7979310  14.1898170
  17.0762390   5.7058190  14.0617390  16.6124290   4.7341840  15.1260160
  16.6978890   2.7348300  19.1827600  16.3222490   1.9676230  18.7508890
  15.9682010   3.1171000  19.6702530  16.0878510   1.8819820  28.8167120
  15.8564600   1.6532570  27.9165070  16.3483060   2.8019370  28.7712010
  14.7964160  11.4950220  20.8166170  15.3923230  11.1734790  20.1400590
  15.0542310  11.0222040  21.6079440   2.7026730   7.9268130  30.9656800
   2.6596360   7.5561040  31.8471260   2.8337740   8.8645700  31.1058620
   6.4032760   9.4827720  26.5666520   6.1624120   9.7502280  25.6797040
   7.3435400   9.6533450  26.6217380  17.6636920  11.5022100  27.3677160
  17.1695200  11.8990970  26.6504290  17.0550210  10.8771310  27.7614440
   2.5414760  10.8730380  28.0854580   1.9475080  10.7415080  28.8244620
   2.5338600  10.0368520  27.6196680  15.3476370  12.1445520  24.6463900
  14.8879340  12.8961330  24.2721920  14.7188830  11.4251990  24.5878700
   5.7772090  10.4533760  23.8212030   6.2937110   9.8421120  23.2960290
   6.4269470  10.9562540  24.3123040   8.5167590  11.3442250  24.6481010
   8.8045400  11.0896550  23.7714020   9.0290810  10.7919610  25.2386580
   8.5839950  12.2658350  32.0149210   9.5107260  12.0302620  32.0585170
   8.5690380  13.0930350  31.5335240  16.8185010  11.8083920  19.0123460
  16.9937200  11.1221660  18.3684380  16.1206580  12.3330970  18.6200130
   4.6612660  12.1978760  16.5658770   5.3931480  11.9138040  16.0182660
   4.9206330  11.9592040  17.4558150   3.8227450   8.3143490  16.5705100
   3.1936330   8.7828590  17.1190930   3.9375280   7.4692710  17.0051290
  15.1517510  11.4928210  31.8390250  15.9442830  10.9977440  31.6316210
  15.4450660  12.1718350  32.4465860  11.2777170   2.3649150   2.7206300
  11.1971220   1.4503760   2.4498010  10.8641590   2.8616220   2.0146010
   9.4095210   4.1428170   4.6015570   8.6337310   3.6628610   4.8914140
  10.0608140   3.4633820   4.4271730   3.4261040   4.4547980   5.4791330
   2.5945920   4.1996690   5.8787840   4.0342020   4.5258750   6.2149250
  13.4302640   8.5488360   3.3814700  12.9684170   7.7775600   3.7101870
  14.2428190   8.5754430   3.8867150   3.4062300   8.4888070   5.6749350
   3.7090340   7.5985810   5.4959570   4.1505890   9.0458290   5.4471600
   9.6565950  10.8346370   3.0018690   9.0377390  11.2903870   2.4313130
  10.5117730  10.9897830   2.6008390   8.8504200   6.8185360   4.6085730
   8.7812480   5.8775300   4.4474860   9.6124060   6.9086770   5.1808300
   5.3861060   5.2461480   7.0734200   5.0530440   5.8730400   7.7155270
   5.5627740   5.7723360   6.2935870   4.5980160   7.2142280   8.8883380
   5.2154160   7.8893360   8.6067830   3.7373280   7.6230260   8.7970880
  15.5157750   8.6781690   6.8038020  14.8321270   9.3480800   6.7954690
  16.0552040   8.8762340   6.0382880  13.0516490  10.5225820   5.5183200
  13.0643650  10.1188110   4.6505460  12.4991710  11.2973110   5.4144630
  12.4501930   5.4255660   6.8465810  12.8670720   5.2115770   6.0119270
  13.1741750   5.6828450   7.4174430  16.3964030   3.8242880   6.9382050
  15.5682660   3.8935970   6.4632180  16.9914510   4.4097190   6.4697880
   5.4938830   3.3972100   2.7455590   5.0895830   2.6849350   2.2501490
   5.5801950   3.0525340   3.6343630   5.9620530   7.0839660   4.9094800
   5.6648820   6.4785130   4.2302580   6.9120350   7.1216970   4.7984160
  14.0506140  10.6571530   8.5717900  13.5736700  11.4643720   8.3790510
  13.3667930  10.0049860   8.7244110   5.0538960   6.8221350  11.5602600
   4.1567490   7.0461320  11.8076000   5.0791830   6.9456290  10.6114000
   3.8810180   3.6934670  10.1359970   3.7417950   4.5657470  10.5047370
   2.9991540   3.3507480   9.9907910   5.6790530   9.6356370  12.3445120
   5.6505960  10.0399320  11.4773550   5.5155500   8.7066730  12.1816720
  17.6305350  10.4183470  13.6409290  18.1065070  10.8966360  14.3198370
  18.2512510  10.3500960  12.9154790  17.0338600   7.6096320  10.8009300
  17.1601660   7.3708200   9.8826480  17.0759980   6.7780860  11.2731380
  10.8955340  11.3124320   9.3704110  11.4100010  11.2232330  10.1726540
  10.0524420  11.6584020   9.6632020   7.6124470   2.7274360   6.2329770
   7.9794600   2.2532930   6.9791110   7.4229530   3.6015930   6.5738110
   5.4023840   1.7683000   8.5513980   5.0980910   2.6474980   8.7764340
   6.3570300   1.8282790   8.5871420  14.6893610   4.9709350   4.9407220
  15.4092730   5.4664640   4.5503330  14.4875430   4.2927240   4.2961090
  10.0712410   5.0418410  10.8276220  10.0049720   4.1214080  10.5733810
   9.4417550   5.1393850  11.5420860   3.9743030   5.6424370   2.7859640
   4.4921700   4.8392630   2.7316530   3.5227050   5.5803510   3.6276470
   4.6600690   3.0669980  12.5824890   4.3600830   3.2127160  11.6852710
   5.4311930   2.5075270  12.4898280  10.0029140   7.8638980  10.5780020
  10.0173680   6.9319940  10.3598930   9.2954240   7.9498740  11.2169790
  16.2140350   4.5046320   9.9248600  15.4888540   5.0975100   9.7277990
  16.7415810   4.4969860   9.1261970  11.7439940   6.2306490   3.4232450
  12.0963760   5.6334620   2.7633820  10.8602270   5.9050720   3.5940700
   9.4363040   9.5056550   7.6720520  10.0805260   9.7115930   8.3493940
   9.7992480   8.7444950   7.2191370  10.7095120   7.5088900   6.3897970
  11.3517350   6.8082060   6.5030140  11.2344470   8.2887340   6.2094860
  12.4832740   8.3083800   9.5934030  12.8188980   8.8950490  10.2711950
  11.5633080   8.1776510   9.8231820   8.3121320   8.3575130  12.7622090
   7.9918190   7.6384370  13.3067780   7.6379680   9.0330200  12.8358150
  13.9865780   2.7042020   2.6386610  13.0455920   2.7192250   2.8134300
  14.3009850   1.9177980   3.0846910  15.9891360   9.8750870   4.3140870
  16.1138780  10.6982040   4.7864680  16.8556920   9.6641600   3.9665020
   3.4608890  11.9682080   3.9858000   4.1971370  11.4197540   4.2566570
   3.8449810  12.8338090   3.8463990   2.4667170  11.1528150  13.1743580
   3.2679900  11.4740200  13.5878980   1.9518990  10.7923730  13.8963490
  11.3031800   7.2608020  13.1218990  10.6969960   7.2839620  12.3814740
  10.9985910   6.5291060  13.6586240  12.7332170  10.9888310  11.7328400
  13.6853920  10.9046330  11.6828640  12.5860390  11.6530020  12.4062190
   7.2402920   5.0472600  11.6515150   6.4748590   5.6157600  11.5669820
   7.4218880   4.7548810  10.7583380  14.3826270   6.7777930  12.2090170
  15.1235740   7.1153690  11.7057630  13.6198950   6.9469990  11.6559940
   2.2188060   1.7831200  13.0129700   2.2593400   1.4845070  13.9214930
   3.0733560   2.1838810  12.8537220  13.0571930   4.8292760  10.7445380
  13.4712950   4.9837840  11.5935800  12.1222930   4.9547980  10.9071160
  13.5294100   2.1688920  12.7484530  14.1114870   1.4141240  12.6605010
  13.7055870   2.6996360  11.9716010   7.8187160   4.7813240   8.7141310
   8.2375270   5.6245970   8.5417550   6.8995790   4.9185280   8.4848090
  10.1551060   2.5129420  10.0979150  10.2747270   1.9170560  10.8373990
  11.0145060   2.5499110   9.6780450  12.4938960   3.0666610   8.6741660
  11.9674180   3.5909230   8.0706800  12.8370300   3.6994000   9.3051390
   5.6694580  11.0866250   9.8299040   5.1315670  11.8112310   9.5107740
   5.9228540  10.6096590   9.0396380   8.5256790  12.3217460  10.0885690
   8.4515490  13.2252600  10.3958060   7.6235630  12.0029360  10.0607760
  16.0536470  10.0179640  10.4178250  15.4538460  10.0772200   9.6742170
  16.1830370   9.0784620  10.5475100  17.7554350   5.3595040   3.1024090
  18.1263180   4.5762360   2.6960060  18.3956280   6.0484140   2.9241390
  14.7388110   6.7431620   8.5154410  13.9247950   7.1728780   8.7780200
  15.1462310   7.3550030   7.9023460  16.0878510   1.8819820  10.0423630
  15.8564600   1.6532570   9.1421580  16.3483060   2.8019370   9.9968520
   2.7026730   7.9268130  12.1913310   2.6596360   7.5561040  13.0727770
   2.8337740   8.8645700  12.3315130   6.4032760   9.4827720   7.7923030
   6.1624120   9.7502280   6.9053550   7.3435400   9.6533450   7.8473890
  17.6636920  11.5022100   8.5933670  17.1695200  11.8990970   7.8760800
  17.0550210  10.8771310   8.9870950   2.5414760  10.8730380   9.3111090
   1.9475080  10.7415080  10.0501130   2.5338600  10.0368520   8.8453190
  15.3476370  12.1445520   5.8720410  14.8879340  12.8961330   5.4978430
  14.7188830  11.4251990   5.8135210   5.7772090  10.4533760   5.0468540
   6.2937110   9.8421120   4.5216800   6.4269470  10.9562540   5.5379550
   8.5167590  11.3442250   5.8737520   8.8045400  11.0896550   4.9970530
   9.0290810  10.7919610   6.4643090   8.5839950  12.2658350  13.2405720
   9.5107260  12.0302620  13.2841680   8.5690380  13.0930350  12.7591750
  15.1517510  11.4928210  13.0646760  15.9442830  10.9977440  12.8572720
  15.4450660  12.1718350  13.6722370
  73.4389840  81.3204940  65.0295520  90.0000000  90.0000000  90.0000000
